 Entering Gaussian System, Link 0=/u/local/apps/gaussian/16_avx/g16
 Initial command:
 /u/local/apps/gaussian/16_avx/l1.exe "/work/6444767.1.pod_smp.q/Gau-18473.inp" -scrdir="/work/6444767.1.pod_smp.q/"
 Entering Link 1 = /u/local/apps/gaussian/16_avx/l1.exe PID=     18474.
  
 Copyright (c) 1988,1990,1992,1993,1995,1998,2003,2009,2016,
            Gaussian, Inc.  All Rights Reserved.
  
 This is part of the Gaussian(R) 16 program.  It is based on
 the Gaussian(R) 09 system (copyright 2009, Gaussian, Inc.),
 the Gaussian(R) 03 system (copyright 2003, Gaussian, Inc.),
 the Gaussian(R) 98 system (copyright 1998, Gaussian, Inc.),
 the Gaussian(R) 94 system (copyright 1995, Gaussian, Inc.),
 the Gaussian 92(TM) system (copyright 1992, Gaussian, Inc.),
 the Gaussian 90(TM) system (copyright 1990, Gaussian, Inc.),
 the Gaussian 88(TM) system (copyright 1988, Gaussian, Inc.),
 the Gaussian 86(TM) system (copyright 1986, Carnegie Mellon
 University), and the Gaussian 82(TM) system (copyright 1983,
 Carnegie Mellon University). Gaussian is a federally registered
 trademark of Gaussian, Inc.
  
 This software contains proprietary and confidential information,
 including trade secrets, belonging to Gaussian, Inc.
  
 This software is provided under written license and may be
 used, copied, transmitted, or stored only in accord with that
 written license.
  
 The following legend is applicable only to US Government
 contracts under FAR:
  
                    RESTRICTED RIGHTS LEGEND
  
 Use, reproduction and disclosure by the US Government is
 subject to restrictions as set forth in subparagraphs (a)
 and (c) of the Commercial Computer Software - Restricted
 Rights clause in FAR 52.227-19.
  
 Gaussian, Inc.
 340 Quinnipiac St., Bldg. 40, Wallingford CT 06492
  
  
 ---------------------------------------------------------------
 Warning -- This program may not be used in any manner that
 competes with the business of Gaussian, Inc. or will provide
 assistance to any competitor of Gaussian, Inc.  The licensee
 of this program is prohibited from giving any competitor of
 Gaussian, Inc. access to this program.  By using this program,
 the user acknowledges that Gaussian, Inc. is engaged in the
 business of creating and licensing software in the field of
 computational chemistry and represents and warrants to the
 licensee that it is not a competitor of Gaussian, Inc. and that
 it will not use this program in any manner prohibited above.
 ---------------------------------------------------------------
  

 Cite this work as:
 Gaussian 16, Revision A.03,
 M. J. Frisch, G. W. Trucks, H. B. Schlegel, G. E. Scuseria, 
 M. A. Robb, J. R. Cheeseman, G. Scalmani, V. Barone, 
 G. A. Petersson, H. Nakatsuji, X. Li, M. Caricato, A. V. Marenich, 
 J. Bloino, B. G. Janesko, R. Gomperts, B. Mennucci, H. P. Hratchian, 
 J. V. Ortiz, A. F. Izmaylov, J. L. Sonnenberg, D. Williams-Young, 
 F. Ding, F. Lipparini, F. Egidi, J. Goings, B. Peng, A. Petrone, 
 T. Henderson, D. Ranasinghe, V. G. Zakrzewski, J. Gao, N. Rega, 
 G. Zheng, W. Liang, M. Hada, M. Ehara, K. Toyota, R. Fukuda, 
 J. Hasegawa, M. Ishida, T. Nakajima, Y. Honda, O. Kitao, H. Nakai, 
 T. Vreven, K. Throssell, J. A. Montgomery, Jr., J. E. Peralta, 
 F. Ogliaro, M. J. Bearpark, J. J. Heyd, E. N. Brothers, K. N. Kudin, 
 V. N. Staroverov, T. A. Keith, R. Kobayashi, J. Normand, 
 K. Raghavachari, A. P. Rendell, J. C. Burant, S. S. Iyengar, 
 J. Tomasi, M. Cossi, J. M. Millam, M. Klene, C. Adamo, R. Cammi, 
 J. W. Ochterski, R. L. Martin, K. Morokuma, O. Farkas, 
 J. B. Foresman, and D. J. Fox, Gaussian, Inc., Wallingford CT, 2016.
 
 ******************************************
 Gaussian 16:  ES64L-G16RevA.03 25-Dec-2016
                13-Mar-2023 
 ******************************************
 %nproc=12
 Will use up to   12 processors via shared memory.
 %mem=16GB
 --------------------------------------------------------------
 #p ub3lyp/6-311++G(d,p) guess=mix opt=(calcfc,ts,noeigen) freq
 --------------------------------------------------------------
 1/5=1,10=4,11=1,18=20,26=3,38=1/1,3;
 2/9=110,12=2,17=6,18=5,40=1/2;
 3/5=4,6=6,7=1111,11=2,25=1,30=1,71=2,74=-5,116=2,140=1/1,2,3;
 4/13=-1/1;
 5/5=2,38=5/2;
 8/6=4,10=90,11=11/1;
 11/6=1,8=1,9=11,15=111,16=1/1,2,10;
 10/6=1,13=1/2;
 6/7=2,8=2,9=2,10=2,28=1/1;
 7/10=1,18=20,25=1/1,2,3,16;
 1/5=1,10=4,11=1,18=20,26=3/3(2);
 2/9=110/2;
 99//99;
 2/9=110/2;
 3/5=4,6=6,7=1111,11=2,25=1,30=1,71=1,74=-5,116=2/1,2,3;
 4/5=5,16=3,69=1/1;
 5/5=2,38=5/2;
 7//1,2,3,16;
 1/5=1,11=1,18=20,26=3/3(-5);
 2/9=110/2;
 6/7=2,8=2,9=2,10=2,19=2,28=1/1;
 99/9=1/99;
 Leave Link    1 at Mon Mar 13 20:02:51 2023, MaxMem=  2147483648 cpu:               0.4 elap:               0.0
 (Enter /u/local/apps/gaussian/16_avx/l101.exe)
 -
 r
 -
 Symbolic Z-matrix:
 Charge =  0 Multiplicity = 1
 C                     1.86088   0.32617   0.08475 
 C                     0.65542  -0.28199   0.4942 
 C                    -0.54966  -0.33523  -1.09007 
 C                    -1.74379  -0.89657  -0.65463 
 C                    -2.89806  -0.19484  -0.15585 
 C                    -3.04406   1.13919  -0.01333 
 H                    -0.52321   0.72276  -1.33709 
 H                     0.10503  -0.95581  -1.69471 
 H                    -1.80306  -1.98056  -0.6344 
 H                    -3.73709  -0.82674   0.12381 
 F                     1.84548   1.63218  -0.17692 
 F                     2.62354  -0.32842  -0.78892 
 F                     0.74785  -1.57767   0.83061 
 F                    -0.05058   0.39603   1.4062 
 Cl                   -4.54842   1.82127   0.59435 
 Cl                   -1.75927   2.28046  -0.39334 
 
 Add virtual bond connecting atoms C3         and C2         Dist= 3.76D+00.
 ITRead=  0  0  0  0  0  0  0  0  0  0  0  0  0  0  0  0
 MicOpt= -1 -1 -1 -1 -1 -1 -1 -1 -1 -1 -1 -1 -1 -1 -1 -1
 NAtoms=     16 NQM=       16 NQMF=       0 NMMI=      0 NMMIF=      0
                NMic=       0 NMicF=      0.
                    Isotopes and Nuclear Properties:
 (Nuclear quadrupole moments (NQMom) in fm**2, nuclear magnetic moments (NMagM)
  in nuclear magnetons)

  Atom         1           2           3           4           5           6           7           8           9          10
 IAtWgt=          12          12          12          12          12          12           1           1           1           1
 AtmWgt=  12.0000000  12.0000000  12.0000000  12.0000000  12.0000000  12.0000000   1.0078250   1.0078250   1.0078250   1.0078250
 NucSpn=           0           0           0           0           0           0           1           1           1           1
 AtZEff=  -0.0000000  -0.0000000  -0.0000000  -0.0000000  -0.0000000  -0.0000000  -0.0000000  -0.0000000  -0.0000000  -0.0000000
 NQMom=    0.0000000   0.0000000   0.0000000   0.0000000   0.0000000   0.0000000   0.0000000   0.0000000   0.0000000   0.0000000
 NMagM=    0.0000000   0.0000000   0.0000000   0.0000000   0.0000000   0.0000000   2.7928460   2.7928460   2.7928460   2.7928460
 AtZNuc=   6.0000000   6.0000000   6.0000000   6.0000000   6.0000000   6.0000000   1.0000000   1.0000000   1.0000000   1.0000000

  Atom        11          12          13          14          15          16
 IAtWgt=          19          19          19          19          35          35
 AtmWgt=  18.9984032  18.9984032  18.9984032  18.9984032  34.9688527  34.9688527
 NucSpn=           1           1           1           1           3           3
 AtZEff=  -0.0000000  -0.0000000  -0.0000000  -0.0000000  -0.0000000  -0.0000000
 NQMom=    0.0000000   0.0000000   0.0000000   0.0000000  -8.1650000  -8.1650000
 NMagM=    2.6288670   2.6288670   2.6288670   2.6288670   0.8218740   0.8218740
 AtZNuc=   9.0000000   9.0000000   9.0000000   9.0000000  17.0000000  17.0000000
 Leave Link  101 at Mon Mar 13 20:02:51 2023, MaxMem=  2147483648 cpu:               8.1 elap:               0.7
 (Enter /u/local/apps/gaussian/16_avx/l103.exe)

 GradGradGradGradGradGradGradGradGradGradGradGradGradGradGradGradGradGrad
 Berny optimization.
 Initialization pass.
                           ----------------------------
                           !    Initial Parameters    !
                           ! (Angstroms and Degrees)  !
 --------------------------                            --------------------------
 ! Name  Definition              Value          Derivative Info.                !
 --------------------------------------------------------------------------------
 ! R1    R(1,2)                  1.4109         calculate D2E/DX2 analytically  !
 ! R2    R(1,11)                 1.3321         calculate D2E/DX2 analytically  !
 ! R3    R(1,12)                 1.3317         calculate D2E/DX2 analytically  !
 ! R4    R(2,3)                  1.9912         calculate D2E/DX2 analytically  !
 ! R5    R(2,13)                 1.3418         calculate D2E/DX2 analytically  !
 ! R6    R(2,14)                 1.3379         calculate D2E/DX2 analytically  !
 ! R7    R(3,4)                  1.3895         calculate D2E/DX2 analytically  !
 ! R8    R(3,7)                  1.0868         calculate D2E/DX2 analytically  !
 ! R9    R(3,8)                  1.086          calculate D2E/DX2 analytically  !
 ! R10   R(4,5)                  1.44           calculate D2E/DX2 analytically  !
 ! R11   R(4,9)                  1.0858         calculate D2E/DX2 analytically  !
 ! R12   R(5,6)                  1.3495         calculate D2E/DX2 analytically  !
 ! R13   R(5,10)                 1.087          calculate D2E/DX2 analytically  !
 ! R14   R(6,15)                 1.76           calculate D2E/DX2 analytically  !
 ! R15   R(6,16)                 1.76           calculate D2E/DX2 analytically  !
 ! A1    A(2,1,11)             118.0175         calculate D2E/DX2 analytically  !
 ! A2    A(2,1,12)             117.8927         calculate D2E/DX2 analytically  !
 ! A3    A(11,1,12)            111.0806         calculate D2E/DX2 analytically  !
 ! A4    A(1,2,3)              107.3199         calculate D2E/DX2 analytically  !
 ! A5    A(1,2,13)             115.4752         calculate D2E/DX2 analytically  !
 ! A6    A(1,2,14)             115.4832         calculate D2E/DX2 analytically  !
 ! A7    A(3,2,13)             102.4357         calculate D2E/DX2 analytically  !
 ! A8    A(3,2,14)             103.6832         calculate D2E/DX2 analytically  !
 ! A9    A(13,2,14)            110.7812         calculate D2E/DX2 analytically  !
 ! A10   A(2,3,4)              106.3545         calculate D2E/DX2 analytically  !
 ! A11   A(2,3,7)               98.053          calculate D2E/DX2 analytically  !
 ! A12   A(2,3,8)               95.3601         calculate D2E/DX2 analytically  !
 ! A13   A(4,3,7)              119.0413         calculate D2E/DX2 analytically  !
 ! A14   A(4,3,8)              117.499          calculate D2E/DX2 analytically  !
 ! A15   A(7,3,8)              114.5248         calculate D2E/DX2 analytically  !
 ! A16   A(3,4,5)              126.9107         calculate D2E/DX2 analytically  !
 ! A17   A(3,4,9)              117.1338         calculate D2E/DX2 analytically  !
 ! A18   A(5,4,9)              115.8677         calculate D2E/DX2 analytically  !
 ! A19   A(4,5,6)              127.2302         calculate D2E/DX2 analytically  !
 ! A20   A(4,5,10)             115.1229         calculate D2E/DX2 analytically  !
 ! A21   A(6,5,10)             117.6448         calculate D2E/DX2 analytically  !
 ! A22   A(5,6,15)             120.7989         calculate D2E/DX2 analytically  !
 ! A23   A(5,6,16)             122.6304         calculate D2E/DX2 analytically  !
 ! A24   A(15,6,16)            116.5647         calculate D2E/DX2 analytically  !
 ! D1    D(11,1,2,3)            70.8175         calculate D2E/DX2 analytically  !
 ! D2    D(11,1,2,13)         -175.7015         calculate D2E/DX2 analytically  !
 ! D3    D(11,1,2,14)          -44.2145         calculate D2E/DX2 analytically  !
 ! D4    D(12,1,2,3)           -67.1385         calculate D2E/DX2 analytically  !
 ! D5    D(12,1,2,13)           46.3424         calculate D2E/DX2 analytically  !
 ! D6    D(12,1,2,14)          177.8294         calculate D2E/DX2 analytically  !
 ! D7    D(1,2,3,4)           -178.097          calculate D2E/DX2 analytically  !
 ! D8    D(1,2,3,7)            -54.5607         calculate D2E/DX2 analytically  !
 ! D9    D(1,2,3,8)             61.1825         calculate D2E/DX2 analytically  !
 ! D10   D(13,2,3,4)            59.8879         calculate D2E/DX2 analytically  !
 ! D11   D(13,2,3,7)          -176.5757         calculate D2E/DX2 analytically  !
 ! D12   D(13,2,3,8)           -60.8326         calculate D2E/DX2 analytically  !
 ! D13   D(14,2,3,4)           -55.4291         calculate D2E/DX2 analytically  !
 ! D14   D(14,2,3,7)            68.1073         calculate D2E/DX2 analytically  !
 ! D15   D(14,2,3,8)          -176.1496         calculate D2E/DX2 analytically  !
 ! D16   D(2,3,4,5)             92.0459         calculate D2E/DX2 analytically  !
 ! D17   D(2,3,4,9)            -84.3875         calculate D2E/DX2 analytically  !
 ! D18   D(7,3,4,5)            -17.2187         calculate D2E/DX2 analytically  !
 ! D19   D(7,3,4,9)            166.3479         calculate D2E/DX2 analytically  !
 ! D20   D(8,3,4,5)           -162.7351         calculate D2E/DX2 analytically  !
 ! D21   D(8,3,4,9)             20.8316         calculate D2E/DX2 analytically  !
 ! D22   D(3,4,5,6)             -0.0739         calculate D2E/DX2 analytically  !
 ! D23   D(3,4,5,10)           179.382          calculate D2E/DX2 analytically  !
 ! D24   D(9,4,5,6)            176.3986         calculate D2E/DX2 analytically  !
 ! D25   D(9,4,5,10)            -4.1455         calculate D2E/DX2 analytically  !
 ! D26   D(4,5,6,15)           179.0299         calculate D2E/DX2 analytically  !
 ! D27   D(4,5,6,16)            -1.8875         calculate D2E/DX2 analytically  !
 ! D28   D(10,5,6,15)           -0.414          calculate D2E/DX2 analytically  !
 ! D29   D(10,5,6,16)          178.6685         calculate D2E/DX2 analytically  !
 --------------------------------------------------------------------------------
 Trust Radius=3.00D-01 FncErr=1.00D-07 GrdErr=1.00D-06 EigMax=2.50D+02 EigMin=1.00D-04
 Number of steps in this run=     78 maximum allowed number of steps=    100.
 Search for a saddle point of order  1.
 GradGradGradGradGradGradGradGradGradGradGradGradGradGradGradGradGradGrad

 Leave Link  103 at Mon Mar 13 20:02:51 2023, MaxMem=  2147483648 cpu:               0.5 elap:               0.0
 (Enter /u/local/apps/gaussian/16_avx/l202.exe)
                          Input orientation:                          
 ---------------------------------------------------------------------
 Center     Atomic      Atomic             Coordinates (Angstroms)
 Number     Number       Type             X           Y           Z
 ---------------------------------------------------------------------
      1          6           0        1.860878    0.326168    0.084749
      2          6           0        0.655416   -0.281989    0.494197
      3          6           0       -0.549659   -0.335233   -1.090067
      4          6           0       -1.743790   -0.896566   -0.654630
      5          6           0       -2.898061   -0.194835   -0.155849
      6          6           0       -3.044063    1.139188   -0.013329
      7          1           0       -0.523210    0.722760   -1.337094
      8          1           0        0.105031   -0.955806   -1.694707
      9          1           0       -1.803062   -1.980561   -0.634395
     10          1           0       -3.737087   -0.826740    0.123807
     11          9           0        1.845475    1.632177   -0.176916
     12          9           0        2.623535   -0.328423   -0.788924
     13          9           0        0.747847   -1.577667    0.830613
     14          9           0       -0.050582    0.396025    1.406200
     15         17           0       -4.548421    1.821268    0.594350
     16         17           0       -1.759270    2.280460   -0.393338
 ---------------------------------------------------------------------
                    Distance matrix (angstroms):
                    1          2          3          4          5
     1  C    0.000000
     2  C    1.410901   0.000000
     3  C    2.761944   1.991214   0.000000
     4  C    3.877550   2.730146   1.389478   0.000000
     5  C    4.793415   3.613496   2.531297   1.439983   0.000000
     6  C    4.972833   3.995431   3.091170   2.499254   1.349535
     7  H    2.804068   2.398397   1.086771   2.139577   2.806642
     8  H    2.809434   2.355473   1.085965   2.122124   3.459151
     9  H    4.388920   3.194211   2.117961   1.085803   2.148685
    10  H    5.715587   4.441624   3.445978   2.141045   1.086957
    11  F    1.332053   2.351736   3.231287   4.416512   5.083262
    12  F    1.331706   2.349904   3.187459   4.406172   5.559375
    13  F    2.328033   1.341827   2.629862   2.979614   4.022186
    14  F    2.324821   1.337866   2.648616   2.963910   3.301098
    15  Cl   6.601070   5.613701   4.845395   4.100308   2.711302
    16  Cl   4.141654   3.631057   2.964868   3.187790   2.735019
                    6          7          8          9         10
     6  C    0.000000
     7  H    2.877580   0.000000
     8  H    4.139182   1.827610   0.000000
     9  H    3.414475   3.072418   2.411473   0.000000
    10  H    2.089010   3.855410   4.252708   2.376263   0.000000
    11  F    4.917050   2.789932   3.468500   5.154899   6.107512
    12  F    5.905683   3.362660   2.748984   4.727388   6.445069
    13  F    4.740477   3.406832   2.679023   2.969126   4.601967
    14  F    3.395332   2.802819   3.386338   3.589342   4.090233
    15  Cl   1.760000   4.597773   5.882732   4.847753   2.809203
    16  Cl   1.760000   2.201125   3.955072   4.268059   3.719393
                   11         12         13         14         15
    11  F    0.000000
    12  F    2.196334   0.000000
    13  F    3.538785   2.775197   0.000000
    14  F    2.762130   3.534727   2.205504   0.000000
    15  Cl   6.443021   7.613906   6.297542   4.787585   0.000000
    16  Cl   3.668964   5.115832   4.761180   3.115934   2.994286
                   16
    16  Cl   0.000000
 Stoichiometry    C6H4Cl2F4
 Framework group  C1[X(C6H4Cl2F4)]
 Deg. of freedom    42
 Full point group                 C1      NOp   1
 Largest Abelian subgroup         C1      NOp   1
 Largest concise Abelian subgroup C1      NOp   1
                         Standard orientation:                         
 ---------------------------------------------------------------------
 Center     Atomic      Atomic             Coordinates (Angstroms)
 Number     Number       Type             X           Y           Z
 ---------------------------------------------------------------------
      1          6           0       -2.730511   -0.533566    0.250663
      2          6           0       -1.738465    0.434551    0.513788
      3          6           0       -0.686164    0.674942   -1.159475
      4          6           0        0.310217    1.597800   -0.865868
      5          6           0        1.644220    1.312839   -0.404584
      6          6           0        2.184193    0.099045   -0.167142
      7          1           0       -0.412238   -0.364762   -1.317749
      8          1           0       -1.525030    1.016326   -1.758708
      9          1           0        0.048229    2.649076   -0.937620
     10          1           0        2.272924    2.184771   -0.243518
     11          9           0       -2.344286   -1.798797    0.094503
     12          9           0       -3.696319   -0.217859   -0.610141
     13          9           0       -2.191279    1.675170    0.751113
     14          9           0       -0.817832    0.084009    1.419018
     15         17           0        3.852064   -0.055218    0.373237
     16         17           0        1.275149   -1.396652   -0.351892
 ---------------------------------------------------------------------
 Rotational constants (GHZ):           1.3962468           0.3673579           0.3295964
 Leave Link  202 at Mon Mar 13 20:02:51 2023, MaxMem=  2147483648 cpu:               0.2 elap:               0.0
 (Enter /u/local/apps/gaussian/16_avx/l301.exe)
 Standard basis: 6-311++G(d,p) (5D, 7F)
 Ernie: Thresh=  0.10000D-02 Tol=  0.10000D-05 Strict=F.
 There are   320 symmetry adapted cartesian basis functions of A   symmetry.
 There are   308 symmetry adapted basis functions of A   symmetry.
   308 basis functions,   502 primitive gaussians,   320 cartesian basis functions
    55 alpha electrons       55 beta electrons
       nuclear repulsion energy       940.9983571027 Hartrees.
 IExCor=  402 DFT=T Ex+Corr=B3LYP ExCW=0 ScaHFX=  0.200000
 ScaDFX=  0.800000  0.720000  1.000000  0.810000 ScalE2=  1.000000  1.000000
 IRadAn=      5 IRanWt=     -1 IRanGd=            0 ICorTp=0 IEmpDi=  4
 NAtoms=   16 NActive=   16 NUniq=   16 SFac= 1.00D+00 NAtFMM=   60 NAOKFM=F Big=F
 Integral buffers will be    131072 words long.
 Raffenetti 2 integral format.
 Two-electron integral symmetry is turned on.
 Leave Link  301 at Mon Mar 13 20:02:52 2023, MaxMem=  2147483648 cpu:               0.7 elap:               0.1
 (Enter /u/local/apps/gaussian/16_avx/l302.exe)
 NPDir=0 NMtPBC=     1 NCelOv=     1 NCel=       1 NClECP=     1 NCelD=      1
         NCelK=      1 NCelE2=     1 NClLst=     1 CellRange=     0.0.
 One-electron integrals computed using PRISM.
 One-electron integral symmetry used in STVInt
 NBasis=   308 RedAO= T EigKep=  4.85D-06  NBF=   308
 NBsUse=   308 1.00D-06 EigRej= -1.00D+00 NBFU=   308
 Precomputing XC quadrature grid using
 IXCGrd= 4 IRadAn=           5 IRanWt=          -1 IRanGd=           0 AccXCQ= 0.00D+00.
 Generated NRdTot=       0 NPtTot=           0 NUsed=           0 NTot=          32
 NSgBfM=   317   317   317   317   317 MxSgAt=    16 MxSgA2=    16.
 Leave Link  302 at Mon Mar 13 20:02:52 2023, MaxMem=  2147483648 cpu:               3.7 elap:               0.3
 (Enter /u/local/apps/gaussian/16_avx/l303.exe)
 DipDrv:  MaxL=1.
 Leave Link  303 at Mon Mar 13 20:02:52 2023, MaxMem=  2147483648 cpu:               0.8 elap:               0.1
 (Enter /u/local/apps/gaussian/16_avx/l401.exe)
 ExpMin= 3.60D-02 ExpMax= 1.06D+05 ExpMxC= 3.62D+03 IAcc=3 IRadAn=         5 AccDes= 0.00D+00
 Harris functional with IExCor=  402 and IRadAn=       5 diagonalized for initial guess.
 HarFok:  IExCor=  402 AccDes= 0.00D+00 IRadAn=         5 IDoV= 1 UseB2=F ITyADJ=14
 ICtDFT=  3500011 ScaDFX=  1.000000  1.000000  1.000000  1.000000
 FoFCou: FMM=F IPFlag=           0 FMFlag=      100000 FMFlg1=           0
         NFxFlg=           0 DoJE=T BraDBF=F KetDBF=T FulRan=T
         wScrn=  0.000000 ICntrl=       500 IOpCl=  0 I1Cent=   200000004 NGrid=           0
         NMat0=    1 NMatS0=      1 NMatT0=    0 NMatD0=    1 NMtDS0=    0 NMtDT0=    0
 Petite list used in FoFCou.
 Harris En= -1550.77923395575    
 JPrj=0 DoOrth=F DoCkMO=T.
 Mixing orbitals, IMix= 1 IMixAn=  0 NRI=1 NE=   55 Coef=  7.07106781D-01  7.07106781D-01
 Mixing orbitals, IMix= 1 IMixAn=  0 NRI=1 NE=   55 Coef= -7.07106781D-01  7.07106781D-01
 Initial guess <Sx>= 0.0000 <Sy>= 0.0000 <Sz>= 0.0000 <S**2>= 1.0000 S= 0.6180
 Leave Link  401 at Mon Mar 13 20:02:53 2023, MaxMem=  2147483648 cpu:              15.0 elap:               1.3
 (Enter /u/local/apps/gaussian/16_avx/l502.exe)
 Integral symmetry usage will be decided dynamically.
 UHF open shell SCF:
 Using DIIS extrapolation, IDIIS=  1040.
 NGot=  2147483648 LenX=  2147272006 LenY=  2147169165
 Requested convergence on RMS density matrix=1.00D-08 within 128 cycles.
 Requested convergence on MAX density matrix=1.00D-06.
 Requested convergence on             energy=1.00D-06.
 No special actions if energy rises.
 Fock matrices will be formed incrementally for  20 cycles.

 Cycle   1  Pass 1  IDiag  1:
 FoFJK:  IHMeth= 1 ICntrl=       0 DoSepK=F KAlg= 0 I1Cent=           0 FoldK=F
 IRaf= 880000000 NMat=       1 IRICut=       1 DoRegI=T DoRafI=F ISym2E= 0 IDoP0=0 IntGTp=1.
 FoFCou: FMM=F IPFlag=           0 FMFlag=      100000 FMFlg1=           0
         NFxFlg=           0 DoJE=F BraDBF=F KetDBF=F FulRan=T
         wScrn=  0.000000 ICntrl=         0 IOpCl=  1 I1Cent=           0 NGrid=           0
         NMat0=    1 NMatS0=      1 NMatT0=    0 NMatD0=    1 NMtDS0=    0 NMtDT0=    0
 Symmetry not used in FoFCou.
 E= -1550.50725180907    
 DIIS: error= 3.66D-02 at cycle   1 NSaved=   1.
 NSaved= 1 IEnMin= 1 EnMin= -1550.50725180907     IErMin= 1 ErrMin= 3.66D-02
 ErrMax= 3.66D-02  0.00D+00 EMaxC= 1.00D-01 BMatC= 1.65D+00 BMatP= 1.65D+00
 IDIUse=3 WtCom= 6.34D-01 WtEn= 3.66D-01
 Coeff-Com:  0.100D+01
 Coeff-En:   0.100D+01
 Coeff:      0.100D+01
 Gap=     0.258 Goal=   None    Shift=    0.000
 Gap=    -0.073 Goal=   None    Shift=    0.000
 GapD=   -0.073 DampG=0.250 DampE=0.500 DampFc=0.2500 IDamp=-1.
 Damping current iteration by 2.50D-01
 RMSDP=1.53D-02 MaxDP=1.47D+00              OVMax= 8.05D-01

 Cycle   2  Pass 1  IDiag  1:
 RMSU=  3.80D-03    CP:  9.92D-01
 E= -1550.61927632349     Delta-E=       -0.112024514419 Rises=F Damp=T
 DIIS: error= 1.10D-02 at cycle   2 NSaved=   2.
 NSaved= 2 IEnMin= 2 EnMin= -1550.61927632349     IErMin= 2 ErrMin= 1.10D-02
 ErrMax= 1.10D-02  0.00D+00 EMaxC= 1.00D-01 BMatC= 3.16D-01 BMatP= 1.65D+00
 IDIUse=3 WtCom= 8.90D-01 WtEn= 1.10D-01
 Coeff-Com: -0.370D+00 0.137D+01
 Coeff-En:   0.136D+00 0.864D+00
 Coeff:     -0.314D+00 0.131D+01
 Gap=     0.388 Goal=   None    Shift=    0.000
 Gap=     0.132 Goal=   None    Shift=    0.000
 RMSDP=6.79D-03 MaxDP=4.79D-01 DE=-1.12D-01 OVMax= 7.06D-01

 Cycle   3  Pass 1  IDiag  1:
 RMSU=  5.80D-03    CP:  1.04D+00  1.84D-01
 E= -1550.73729579228     Delta-E=       -0.118019468786 Rises=F Damp=F
 DIIS: error= 2.53D-02 at cycle   3 NSaved=   3.
 NSaved= 3 IEnMin= 3 EnMin= -1550.73729579228     IErMin= 2 ErrMin= 1.10D-02
 ErrMax= 2.53D-02  0.00D+00 EMaxC= 1.00D-01 BMatC= 4.49D-01 BMatP= 3.16D-01
 IDIUse=2 WtCom= 0.00D+00 WtEn= 1.00D+00
 Coeff-En:   0.000D+00 0.796D-01 0.920D+00
 Coeff:      0.000D+00 0.796D-01 0.920D+00
 Gap=     0.125 Goal=   None    Shift=    0.000
 Gap=    -0.024 Goal=   None    Shift=    0.000
 RMSDP=1.30D-02 MaxDP=9.68D-01 DE=-1.18D-01 OVMax= 6.53D-01

 Cycle   4  Pass 1  IDiag  1:
 RMSU=  7.55D-03    CP:  8.68D-01  1.55D+00 -1.43D-01
 E= -1550.10273041863     Delta-E=        0.634565373649 Rises=F Damp=F
 DIIS: error= 2.68D-02 at cycle   4 NSaved=   4.
 NSaved= 4 IEnMin= 3 EnMin= -1550.73729579228     IErMin= 2 ErrMin= 1.10D-02
 ErrMax= 2.68D-02  0.00D+00 EMaxC= 1.00D-01 BMatC= 2.43D+00 BMatP= 3.16D-01
 IDIUse=2 WtCom= 0.00D+00 WtEn= 1.00D+00
 Coeff-En:   0.000D+00 0.000D+00 0.761D+00 0.239D+00
 Coeff:      0.000D+00 0.000D+00 0.761D+00 0.239D+00
 Gap=     0.205 Goal=   None    Shift=    0.000
 Gap=     0.144 Goal=   None    Shift=    0.000
 RMSDP=7.83D-03 MaxDP=5.46D-01 DE= 6.35D-01 OVMax= 4.84D-01

 Cycle   5  Pass 1  IDiag  1:
 RMSU=  3.16D-03    CP:  9.70D-01  8.42D-01  4.20D-01  4.36D-01
 E= -1550.81554411135     Delta-E=       -0.712813692721 Rises=F Damp=F
 DIIS: error= 1.39D-02 at cycle   5 NSaved=   5.
 NSaved= 5 IEnMin= 5 EnMin= -1550.81554411135     IErMin= 2 ErrMin= 1.10D-02
 ErrMax= 1.39D-02  0.00D+00 EMaxC= 1.00D-01 BMatC= 2.46D-01 BMatP= 3.16D-01
 IDIUse=3 WtCom= 8.61D-01 WtEn= 1.39D-01
 Coeff-Com: -0.167D+00 0.303D+00 0.355D+00-0.985D-01 0.608D+00
 Coeff-En:   0.000D+00 0.000D+00 0.384D+00 0.000D+00 0.616D+00
 Coeff:     -0.144D+00 0.261D+00 0.359D+00-0.848D-01 0.609D+00
 Gap=     0.107 Goal=   None    Shift=    0.000
 Gap=     0.080 Goal=   None    Shift=    0.000
 RMSDP=2.85D-03 MaxDP=2.02D-01 DE=-7.13D-01 OVMax= 3.10D-01

 Cycle   6  Pass 1  IDiag  1:
 RMSU=  1.23D-03    CP:  9.84D-01  5.81D-01  6.43D-01  2.04D-01  7.49D-01
 E= -1550.89518534662     Delta-E=       -0.079641235270 Rises=F Damp=F
 DIIS: error= 1.82D-03 at cycle   6 NSaved=   6.
 NSaved= 6 IEnMin= 6 EnMin= -1550.89518534662     IErMin= 6 ErrMin= 1.82D-03
 ErrMax= 1.82D-03  0.00D+00 EMaxC= 1.00D-01 BMatC= 5.58D-03 BMatP= 2.46D-01
 IDIUse=3 WtCom= 9.82D-01 WtEn= 1.82D-02
 Coeff-Com: -0.716D-01 0.118D+00 0.867D-01-0.605D-01 0.274D+00 0.653D+00
 Coeff-En:   0.000D+00 0.000D+00 0.000D+00 0.000D+00 0.000D+00 0.100D+01
 Coeff:     -0.703D-01 0.116D+00 0.852D-01-0.594D-01 0.269D+00 0.659D+00
 Gap=     0.108 Goal=   None    Shift=    0.000
 Gap=     0.103 Goal=   None    Shift=    0.000
 RMSDP=7.53D-04 MaxDP=6.87D-02 DE=-7.96D-02 OVMax= 2.49D-02

 Cycle   7  Pass 1  IDiag  1:
 RMSU=  6.30D-04    CP:  9.88D-01  5.52D-01  6.59D-01  2.12D-01  7.17D-01
                    CP:  7.20D-01
 E= -1550.89624230460     Delta-E=       -0.001056957976 Rises=F Damp=F
 DIIS: error= 1.02D-03 at cycle   7 NSaved=   7.
 NSaved= 7 IEnMin= 7 EnMin= -1550.89624230460     IErMin= 7 ErrMin= 1.02D-03
 ErrMax= 1.02D-03  0.00D+00 EMaxC= 1.00D-01 BMatC= 2.17D-03 BMatP= 5.58D-03
 IDIUse=3 WtCom= 9.90D-01 WtEn= 1.02D-02
 Coeff-Com:  0.348D-03-0.464D-02-0.159D-01-0.514D-02 0.319D-01 0.421D+00
 Coeff-Com:  0.572D+00
 Coeff-En:   0.000D+00 0.000D+00 0.000D+00 0.000D+00 0.000D+00 0.241D+00
 Coeff-En:   0.759D+00
 Coeff:      0.344D-03-0.459D-02-0.157D-01-0.508D-02 0.316D-01 0.419D+00
 Coeff:      0.574D+00
 Gap=     0.111 Goal=   None    Shift=    0.000
 Gap=     0.105 Goal=   None    Shift=    0.000
 RMSDP=3.87D-04 MaxDP=3.15D-02 DE=-1.06D-03 OVMax= 1.70D-02

 Cycle   8  Pass 1  IDiag  1:
 RMSU=  1.60D-04    CP:  9.85D-01  5.63D-01  6.38D-01  2.28D-01  7.48D-01
                    CP:  8.21D-01  6.44D-01
 E= -1550.89681528898     Delta-E=       -0.000572984381 Rises=F Damp=F
 DIIS: error= 2.99D-04 at cycle   8 NSaved=   8.
 NSaved= 8 IEnMin= 8 EnMin= -1550.89681528898     IErMin= 8 ErrMin= 2.99D-04
 ErrMax= 2.99D-04  0.00D+00 EMaxC= 1.00D-01 BMatC= 1.63D-04 BMatP= 2.17D-03
 IDIUse=3 WtCom= 9.97D-01 WtEn= 2.99D-03
 Coeff-Com:  0.192D-02-0.326D-02-0.131D-01 0.770D-04-0.484D-02 0.172D+00
 Coeff-Com:  0.297D+00 0.550D+00
 Coeff-En:   0.000D+00 0.000D+00 0.000D+00 0.000D+00 0.000D+00 0.000D+00
 Coeff-En:   0.000D+00 0.100D+01
 Coeff:      0.191D-02-0.325D-02-0.131D-01 0.767D-04-0.483D-02 0.172D+00
 Coeff:      0.296D+00 0.551D+00
 Gap=     0.111 Goal=   None    Shift=    0.000
 Gap=     0.106 Goal=   None    Shift=    0.000
 RMSDP=9.74D-05 MaxDP=7.12D-03 DE=-5.73D-04 OVMax= 7.83D-03

 Cycle   9  Pass 1  IDiag  1:
 RMSU=  6.99D-05    CP:  9.85D-01  5.56D-01  6.40D-01  2.25D-01  7.45D-01
                    CP:  8.11D-01  7.04D-01  8.99D-01
 E= -1550.89687469373     Delta-E=       -0.000059404755 Rises=F Damp=F
 DIIS: error= 1.51D-04 at cycle   9 NSaved=   9.
 NSaved= 9 IEnMin= 9 EnMin= -1550.89687469373     IErMin= 9 ErrMin= 1.51D-04
 ErrMax= 1.51D-04  0.00D+00 EMaxC= 1.00D-01 BMatC= 3.02D-05 BMatP= 1.63D-04
 IDIUse=3 WtCom= 9.98D-01 WtEn= 1.51D-03
 Coeff-Com:  0.585D-03-0.568D-03-0.265D-02 0.147D-02-0.113D-01-0.279D-01
 Coeff-Com: -0.100D-01 0.286D+00 0.765D+00
 Coeff-En:   0.000D+00 0.000D+00 0.000D+00 0.000D+00 0.000D+00 0.000D+00
 Coeff-En:   0.000D+00 0.000D+00 0.100D+01
 Coeff:      0.584D-03-0.567D-03-0.265D-02 0.147D-02-0.113D-01-0.279D-01
 Coeff:     -0.100D-01 0.285D+00 0.765D+00
 Gap=     0.111 Goal=   None    Shift=    0.000
 Gap=     0.106 Goal=   None    Shift=    0.000
 RMSDP=7.01D-05 MaxDP=9.12D-03 DE=-5.94D-05 OVMax= 7.10D-03

 Cycle  10  Pass 1  IDiag  1:
 RMSU=  3.44D-05    CP:  9.85D-01  5.52D-01  6.37D-01  2.25D-01  7.38D-01
                    CP:  8.30D-01  7.12D-01  1.07D+00  9.65D-01
 E= -1550.89690507579     Delta-E=       -0.000030382060 Rises=F Damp=F
 DIIS: error= 1.31D-04 at cycle  10 NSaved=  10.
 NSaved=10 IEnMin=10 EnMin= -1550.89690507579     IErMin=10 ErrMin= 1.31D-04
 ErrMax= 1.31D-04  0.00D+00 EMaxC= 1.00D-01 BMatC= 1.24D-05 BMatP= 3.02D-05
 IDIUse=3 WtCom= 9.99D-01 WtEn= 1.31D-03
 Coeff-Com: -0.285D-03 0.409D-03 0.397D-04 0.716D-03-0.375D-02-0.449D-01
 Coeff-Com: -0.604D-01 0.355D-01 0.356D+00 0.717D+00
 Coeff-En:   0.000D+00 0.000D+00 0.000D+00 0.000D+00 0.000D+00 0.000D+00
 Coeff-En:   0.000D+00 0.000D+00 0.000D+00 0.100D+01
 Coeff:     -0.285D-03 0.409D-03 0.396D-04 0.715D-03-0.374D-02-0.448D-01
 Coeff:     -0.603D-01 0.355D-01 0.355D+00 0.717D+00
 Gap=     0.112 Goal=   None    Shift=    0.000
 Gap=     0.107 Goal=   None    Shift=    0.000
 RMSDP=4.48D-05 MaxDP=3.86D-03 DE=-3.04D-05 OVMax= 5.49D-03

 Cycle  11  Pass 1  IDiag  1:
 RMSU=  2.21D-05    CP:  9.85D-01  5.48D-01  6.35D-01  2.25D-01  7.34D-01
                    CP:  8.27D-01  7.26D-01  1.12D+00  1.26D+00  1.60D+00
 E= -1550.89692658970     Delta-E=       -0.000021513907 Rises=F Damp=F
 DIIS: error= 1.02D-04 at cycle  11 NSaved=  11.
 NSaved=11 IEnMin=11 EnMin= -1550.89692658970     IErMin=11 ErrMin= 1.02D-04
 ErrMax= 1.02D-04  0.00D+00 EMaxC= 1.00D-01 BMatC= 6.92D-06 BMatP= 1.24D-05
 IDIUse=3 WtCom= 9.99D-01 WtEn= 1.02D-03
 Coeff-Com: -0.491D-03 0.651D-03-0.101D-02-0.128D-05 0.972D-03-0.934D-02
 Coeff-Com: -0.209D-01-0.787D-01-0.120D+00 0.253D+00 0.976D+00
 Coeff-En:   0.000D+00 0.000D+00 0.000D+00 0.000D+00 0.000D+00 0.000D+00
 Coeff-En:   0.000D+00 0.000D+00 0.000D+00 0.000D+00 0.100D+01
 Coeff:     -0.490D-03 0.650D-03-0.101D-02-0.128D-05 0.971D-03-0.933D-02
 Coeff:     -0.208D-01-0.787D-01-0.120D+00 0.253D+00 0.976D+00
 Gap=     0.112 Goal=   None    Shift=    0.000
 Gap=     0.107 Goal=   None    Shift=    0.000
 RMSDP=5.96D-05 MaxDP=6.00D-03 DE=-2.15D-05 OVMax= 7.66D-03

 Cycle  12  Pass 1  IDiag  1:
 RMSU=  1.30D-05    CP:  9.85D-01  5.44D-01  6.31D-01  2.25D-01  7.30D-01
                    CP:  8.28D-01  7.41D-01  1.19D+00  1.63D+00  2.52D+00
                    CP:  1.96D+00
 E= -1550.89695236054     Delta-E=       -0.000025770847 Rises=F Damp=F
 DIIS: error= 8.87D-05 at cycle  12 NSaved=  12.
 NSaved=12 IEnMin=12 EnMin= -1550.89695236054     IErMin=12 ErrMin= 8.87D-05
 ErrMax= 8.87D-05  0.00D+00 EMaxC= 1.00D-01 BMatC= 4.97D-06 BMatP= 6.92D-06
 IDIUse=1 WtCom= 1.00D+00 WtEn= 0.00D+00
 Coeff-Com:  0.361D-03-0.729D-03-0.293D-02-0.164D-03 0.264D-02 0.543D-01
 Coeff-Com:  0.708D-01-0.591D-01-0.457D+00-0.825D+00 0.338D+00 0.188D+01
 Coeff:      0.361D-03-0.729D-03-0.293D-02-0.164D-03 0.264D-02 0.543D-01
 Coeff:      0.708D-01-0.591D-01-0.457D+00-0.825D+00 0.338D+00 0.188D+01
 Gap=     0.114 Goal=   None    Shift=    0.000
 Gap=     0.108 Goal=   None    Shift=    0.000
 RMSDP=1.54D-04 MaxDP=1.82D-02 DE=-2.58D-05 OVMax= 1.87D-02

 Cycle  13  Pass 1  IDiag  1:
 RMSU=  8.01D-05    CP:  9.84D-01  5.33D-01  6.20D-01  2.26D-01  7.14D-01
                    CP:  8.35D-01  7.74D-01  1.32D+00  2.40D+00  3.00D+00
                    CP:  3.00D+00  2.40D+00
 E= -1550.89700268208     Delta-E=       -0.000050321541 Rises=F Damp=F
 DIIS: error= 5.08D-05 at cycle  13 NSaved=  13.
 NSaved=13 IEnMin=13 EnMin= -1550.89700268208     IErMin=13 ErrMin= 5.08D-05
 ErrMax= 5.08D-05  0.00D+00 EMaxC= 1.00D-01 BMatC= 2.38D-06 BMatP= 4.97D-06
 IDIUse=1 WtCom= 1.00D+00 WtEn= 0.00D+00
 Coeff-Com:  0.458D-03-0.622D-03-0.202D-02 0.179D-04-0.503D-03 0.391D-01
 Coeff-Com:  0.562D-01 0.315D-01-0.200D+00-0.721D+00-0.429D+00 0.105D+01
 Coeff-Com:  0.117D+01
 Coeff:      0.458D-03-0.622D-03-0.202D-02 0.179D-04-0.503D-03 0.391D-01
 Coeff:      0.562D-01 0.315D-01-0.200D+00-0.721D+00-0.429D+00 0.105D+01
 Coeff:      0.117D+01
 Gap=     0.116 Goal=   None    Shift=    0.000
 Gap=     0.109 Goal=   None    Shift=    0.000
 RMSDP=1.47D-04 MaxDP=1.66D-02 DE=-5.03D-05 OVMax= 1.87D-02

 Cycle  14  Pass 1  IDiag  1:
 RMSU=  2.89D-05    CP:  9.84D-01  5.21D-01  6.11D-01  2.27D-01  6.99D-01
                    CP:  8.38D-01  7.99D-01  1.45D+00  3.00D+00  3.00D+00
                    CP:  3.00D+00  3.00D+00  2.21D+00
 E= -1550.89703017918     Delta-E=       -0.000027497095 Rises=F Damp=F
 DIIS: error= 3.35D-05 at cycle  14 NSaved=  14.
 NSaved=14 IEnMin=14 EnMin= -1550.89703017918     IErMin=14 ErrMin= 3.35D-05
 ErrMax= 3.35D-05  0.00D+00 EMaxC= 1.00D-01 BMatC= 1.28D-06 BMatP= 2.38D-06
 IDIUse=1 WtCom= 1.00D+00 WtEn= 0.00D+00
 Coeff-Com:  0.457D-04-0.693D-04 0.279D-04 0.165D-03-0.116D-02-0.378D-02
 Coeff-Com: -0.399D-02 0.535D-01 0.105D+00 0.308D-01-0.319D+00-0.551D+00
 Coeff-Com:  0.767D+00 0.923D+00
 Coeff:      0.457D-04-0.693D-04 0.279D-04 0.165D-03-0.116D-02-0.378D-02
 Coeff:     -0.399D-02 0.535D-01 0.105D+00 0.308D-01-0.319D+00-0.551D+00
 Coeff:      0.767D+00 0.923D+00
 Gap=     0.117 Goal=   None    Shift=    0.000
 Gap=     0.110 Goal=   None    Shift=    0.000
 RMSDP=8.75D-05 MaxDP=9.86D-03 DE=-2.75D-05 OVMax= 1.06D-02

 Cycle  15  Pass 1  IDiag  1:
 RMSU=  1.92D-05    CP:  9.84D-01  5.15D-01  6.05D-01  2.27D-01  6.90D-01
                    CP:  8.37D-01  8.15D-01  1.53D+00  3.00D+00  3.00D+00
                    CP:  3.00D+00  3.00D+00  2.93D+00  2.09D+00
 E= -1550.89703481322     Delta-E=       -0.000004634037 Rises=F Damp=F
 DIIS: error= 1.87D-05 at cycle  15 NSaved=  15.
 NSaved=15 IEnMin=15 EnMin= -1550.89703481322     IErMin=15 ErrMin= 1.87D-05
 ErrMax= 1.87D-05  0.00D+00 EMaxC= 1.00D-01 BMatC= 2.12D-07 BMatP= 1.28D-06
 IDIUse=1 WtCom= 1.00D+00 WtEn= 0.00D+00
 Coeff-Com: -0.256D-03 0.357D-03 0.312D-03-0.890D-05 0.813D-04-0.924D-02
 Coeff-Com: -0.126D-01 0.150D-01 0.758D-01 0.133D+00 0.292D-01-0.384D+00
 Coeff-Com:  0.715D-01 0.291D+00 0.790D+00
 Coeff:     -0.256D-03 0.357D-03 0.312D-03-0.890D-05 0.813D-04-0.924D-02
 Coeff:     -0.126D-01 0.150D-01 0.758D-01 0.133D+00 0.292D-01-0.384D+00
 Coeff:      0.715D-01 0.291D+00 0.790D+00
 Gap=     0.117 Goal=   None    Shift=    0.000
 Gap=     0.110 Goal=   None    Shift=    0.000
 RMSDP=8.25D-06 MaxDP=7.49D-04 DE=-4.63D-06 OVMax= 1.09D-03

 Cycle  16  Pass 1  IDiag  1:
 RMSU=  2.17D-06    CP:  9.84D-01  5.15D-01  6.05D-01  2.27D-01  6.91D-01
                    CP:  8.36D-01  8.15D-01  1.52D+00  3.00D+00  3.00D+00
                    CP:  3.00D+00  3.00D+00  2.87D+00  2.01D+00  9.64D-01
 E= -1550.89703491235     Delta-E=       -0.000000099133 Rises=F Damp=F
 DIIS: error= 5.92D-06 at cycle  16 NSaved=  16.
 NSaved=16 IEnMin=16 EnMin= -1550.89703491235     IErMin=16 ErrMin= 5.92D-06
 ErrMax= 5.92D-06  0.00D+00 EMaxC= 1.00D-01 BMatC= 5.46D-08 BMatP= 2.12D-07
 IDIUse=1 WtCom= 1.00D+00 WtEn= 0.00D+00
 Coeff-Com: -0.135D-03 0.187D-03 0.992D-04-0.446D-04 0.379D-03-0.375D-02
 Coeff-Com: -0.547D-02-0.370D-02 0.165D-01 0.562D-01 0.742D-01-0.840D-01
 Coeff-Com: -0.962D-01-0.318D-01 0.399D+00 0.678D+00
 Coeff:     -0.135D-03 0.187D-03 0.992D-04-0.446D-04 0.379D-03-0.375D-02
 Coeff:     -0.547D-02-0.370D-02 0.165D-01 0.562D-01 0.742D-01-0.840D-01
 Coeff:     -0.962D-01-0.318D-01 0.399D+00 0.678D+00
 Gap=     0.117 Goal=   None    Shift=    0.000
 Gap=     0.110 Goal=   None    Shift=    0.000
 RMSDP=2.69D-06 MaxDP=2.25D-04 DE=-9.91D-08 OVMax= 2.56D-04

 Cycle  17  Pass 1  IDiag  1:
 RMSU=  1.10D-06    CP:  9.84D-01  5.16D-01  6.05D-01  2.27D-01  6.91D-01
                    CP:  8.37D-01  8.15D-01  1.52D+00  3.00D+00  3.00D+00
                    CP:  3.00D+00  3.00D+00  2.86D+00  1.98D+00  9.35D-01
                    CP:  1.28D+00
 E= -1550.89703492887     Delta-E=       -0.000000016518 Rises=F Damp=F
 DIIS: error= 2.61D-06 at cycle  17 NSaved=  17.
 NSaved=17 IEnMin=17 EnMin= -1550.89703492887     IErMin=17 ErrMin= 2.61D-06
 ErrMax= 2.61D-06  0.00D+00 EMaxC= 1.00D-01 BMatC= 1.03D-08 BMatP= 5.46D-08
 IDIUse=1 WtCom= 1.00D+00 WtEn= 0.00D+00
 Coeff-Com:  0.333D-04-0.450D-04-0.108D-04-0.338D-05 0.494D-04 0.477D-03
 Coeff-Com:  0.483D-03-0.631D-02-0.124D-01-0.102D-01 0.923D-02 0.704D-01
 Coeff-Com: -0.641D-01-0.985D-01-0.970D-01 0.271D+00 0.937D+00
 Coeff:      0.333D-04-0.450D-04-0.108D-04-0.338D-05 0.494D-04 0.477D-03
 Coeff:      0.483D-03-0.631D-02-0.124D-01-0.102D-01 0.923D-02 0.704D-01
 Coeff:     -0.641D-01-0.985D-01-0.970D-01 0.271D+00 0.937D+00
 Gap=     0.117 Goal=   None    Shift=    0.000
 Gap=     0.110 Goal=   None    Shift=    0.000
 RMSDP=5.44D-06 MaxDP=6.24D-04 DE=-1.65D-08 OVMax= 6.70D-04

 Cycle  18  Pass 1  IDiag  1:
 RMSU=  6.96D-07    CP:  9.84D-01  5.15D-01  6.05D-01  2.27D-01  6.90D-01
                    CP:  8.37D-01  8.16D-01  1.53D+00  3.00D+00  3.00D+00
                    CP:  3.00D+00  3.00D+00  2.90D+00  2.05D+00  1.00D+00
                    CP:  1.46D+00  1.27D+00
 E= -1550.89703495845     Delta-E=       -0.000000029581 Rises=F Damp=F
 DIIS: error= 1.29D-06 at cycle  18 NSaved=  18.
 NSaved=18 IEnMin=18 EnMin= -1550.89703495845     IErMin=18 ErrMin= 1.29D-06
 ErrMax= 1.29D-06  0.00D+00 EMaxC= 1.00D-01 BMatC= 2.75D-09 BMatP= 1.03D-08
 IDIUse=1 WtCom= 1.00D+00 WtEn= 0.00D+00
 Coeff-Com:  0.284D-04-0.365D-04 0.768D-05 0.727D-06-0.687D-04 0.771D-03
 Coeff-Com:  0.110D-02-0.128D-02-0.611D-02-0.934D-02-0.126D-01 0.334D-01
 Coeff-Com: -0.620D-02-0.167D-01-0.106D+00-0.536D-01 0.258D+00 0.919D+00
 Coeff:      0.284D-04-0.365D-04 0.768D-05 0.727D-06-0.687D-04 0.771D-03
 Coeff:      0.110D-02-0.128D-02-0.611D-02-0.934D-02-0.126D-01 0.334D-01
 Coeff:     -0.620D-02-0.167D-01-0.106D+00-0.536D-01 0.258D+00 0.919D+00
 Gap=     0.117 Goal=   None    Shift=    0.000
 Gap=     0.110 Goal=   None    Shift=    0.000
 RMSDP=1.54D-06 MaxDP=1.45D-04 DE=-2.96D-08 OVMax= 1.85D-04

 Cycle  19  Pass 1  IDiag  1:
 RMSU=  2.96D-07    CP:  9.84D-01  5.15D-01  6.05D-01  2.27D-01  6.90D-01
                    CP:  8.37D-01  8.16D-01  1.53D+00  3.00D+00  3.00D+00
                    CP:  3.00D+00  3.00D+00  2.91D+00  2.07D+00  1.02D+00
                    CP:  1.58D+00  1.39D+00  1.22D+00
 E= -1550.89703495978     Delta-E=       -0.000000001329 Rises=F Damp=F
 DIIS: error= 6.35D-07 at cycle  19 NSaved=  19.
 NSaved=19 IEnMin=19 EnMin= -1550.89703495978     IErMin=19 ErrMin= 6.35D-07
 ErrMax= 6.35D-07  0.00D+00 EMaxC= 1.00D-01 BMatC= 5.95D-10 BMatP= 2.75D-09
 IDIUse=1 WtCom= 1.00D+00 WtEn= 0.00D+00
 Coeff-Com:  0.706D-05-0.986D-05 0.523D-05-0.908D-06-0.317D-04 0.394D-03
 Coeff-Com:  0.593D-03 0.220D-03-0.175D-02-0.304D-02-0.566D-02 0.757D-02
 Coeff-Com:  0.608D-02 0.762D-02-0.313D-01-0.642D-01-0.296D-01 0.351D+00
 Coeff-Com:  0.762D+00
 Coeff:      0.706D-05-0.986D-05 0.523D-05-0.908D-06-0.317D-04 0.394D-03
 Coeff:      0.593D-03 0.220D-03-0.175D-02-0.304D-02-0.566D-02 0.757D-02
 Coeff:      0.608D-02 0.762D-02-0.313D-01-0.642D-01-0.296D-01 0.351D+00
 Coeff:      0.762D+00
 Gap=     0.117 Goal=   None    Shift=    0.000
 Gap=     0.110 Goal=   None    Shift=    0.000
 RMSDP=8.29D-07 MaxDP=5.44D-05 DE=-1.33D-09 OVMax= 9.78D-05

 Cycle  20  Pass 1  IDiag  1:
 RMSU=  1.82D-07    CP:  9.84D-01  5.15D-01  6.05D-01  2.27D-01  6.90D-01
                    CP:  8.37D-01  8.16D-01  1.53D+00  3.00D+00  3.00D+00
                    CP:  3.00D+00  3.00D+00  2.91D+00  2.06D+00  1.01D+00
                    CP:  1.62D+00  1.46D+00  1.33D+00  9.76D-01
 E= -1550.89703496081     Delta-E=       -0.000000001035 Rises=F Damp=F
 DIIS: error= 2.39D-07 at cycle  20 NSaved=  20.
 NSaved=20 IEnMin=20 EnMin= -1550.89703496081     IErMin=20 ErrMin= 2.39D-07
 ErrMax= 2.39D-07  0.00D+00 EMaxC= 1.00D-01 BMatC= 1.63D-10 BMatP= 5.95D-10
 IDIUse=1 WtCom= 1.00D+00 WtEn= 0.00D+00
 Coeff-Com: -0.130D-05 0.449D-06-0.182D-05 0.161D-06-0.489D-05 0.867D-04
 Coeff-Com:  0.145D-03 0.474D-03 0.265D-03-0.129D-03-0.368D-03-0.265D-02
 Coeff-Com:  0.614D-02 0.915D-02 0.820D-02-0.250D-01-0.842D-01-0.634D-01
 Coeff-Com:  0.451D+00 0.700D+00
 Coeff:     -0.130D-05 0.449D-06-0.182D-05 0.161D-06-0.489D-05 0.867D-04
 Coeff:      0.145D-03 0.474D-03 0.265D-03-0.129D-03-0.368D-03-0.265D-02
 Coeff:      0.614D-02 0.915D-02 0.820D-02-0.250D-01-0.842D-01-0.634D-01
 Coeff:      0.451D+00 0.700D+00
 Gap=     0.117 Goal=   None    Shift=    0.000
 Gap=     0.110 Goal=   None    Shift=    0.000
 RMSDP=4.98D-07 MaxDP=6.38D-05 DE=-1.04D-09 OVMax= 5.60D-05

 Cycle  21  Pass 1  IDiag  1:
 Restarting incremental Fock formation.
 E= -1550.89703496093     Delta-E=       -0.000000000115 Rises=F Damp=F
 DIIS: error= 8.15D-08 at cycle  21 NSaved=  20.
 NSaved=20 IEnMin=20 EnMin= -1550.89703496093     IErMin=20 ErrMin= 8.15D-08
 ErrMax= 8.15D-08  0.00D+00 EMaxC= 1.00D-01 BMatC= 2.17D-11 BMatP= 1.63D-10
 IDIUse=1 WtCom= 1.00D+00 WtEn= 0.00D+00
 Coeff-Com: -0.118D-05 0.102D-05-0.214D-05 0.264D-05-0.873D-05-0.155D-04
 Coeff-Com:  0.210D-03 0.397D-03 0.175D-03 0.133D-03-0.228D-02 0.256D-02
 Coeff-Com:  0.326D-02 0.723D-02-0.346D-02-0.345D-01-0.732D-01 0.102D+00
 Coeff-Com:  0.325D+00 0.673D+00
 Coeff:     -0.118D-05 0.102D-05-0.214D-05 0.264D-05-0.873D-05-0.155D-04
 Coeff:      0.210D-03 0.397D-03 0.175D-03 0.133D-03-0.228D-02 0.256D-02
 Coeff:      0.326D-02 0.723D-02-0.346D-02-0.345D-01-0.732D-01 0.102D+00
 Coeff:      0.325D+00 0.673D+00
 Gap=     0.117 Goal=   None    Shift=    0.000
 Gap=     0.110 Goal=   None    Shift=    0.000
 RMSDP=8.69D-08 MaxDP=1.11D-05 DE=-1.15D-10 OVMax= 8.50D-06

 Cycle  22  Pass 1  IDiag  1:
 RMSU=  7.70D-08    CP:  1.00D+00
 E= -1550.89703496093     Delta-E=       -0.000000000008 Rises=F Damp=F
 DIIS: error= 6.26D-08 at cycle  22 NSaved=  20.
 NSaved=20 IEnMin=20 EnMin= -1550.89703496093     IErMin=20 ErrMin= 6.26D-08
 ErrMax= 6.26D-08  0.00D+00 EMaxC= 1.00D-01 BMatC= 6.63D-12 BMatP= 2.17D-11
 IDIUse=1 WtCom= 1.00D+00 WtEn= 0.00D+00
 Coeff-Com: -0.123D-06-0.139D-05 0.232D-05-0.164D-04-0.318D-04 0.277D-04
 Coeff-Com:  0.131D-03-0.216D-04-0.257D-05-0.476D-03 0.175D-03-0.427D-03
 Coeff-Com:  0.125D-02 0.241D-02-0.721D-04-0.137D-01-0.341D-01 0.120D-01
 Coeff-Com:  0.287D+00 0.746D+00
 Coeff:     -0.123D-06-0.139D-05 0.232D-05-0.164D-04-0.318D-04 0.277D-04
 Coeff:      0.131D-03-0.216D-04-0.257D-05-0.476D-03 0.175D-03-0.427D-03
 Coeff:      0.125D-02 0.241D-02-0.721D-04-0.137D-01-0.341D-01 0.120D-01
 Coeff:      0.287D+00 0.746D+00
 Gap=     0.117 Goal=   None    Shift=    0.000
 Gap=     0.110 Goal=   None    Shift=    0.000
 RMSDP=9.18D-08 MaxDP=1.43D-05 DE=-7.73D-12 OVMax= 9.38D-06

 Cycle  23  Pass 1  IDiag  1:
 RMSU=  6.76D-08    CP:  1.00D+00  1.67D+00
 E= -1550.89703496095     Delta-E=       -0.000000000017 Rises=F Damp=F
 DIIS: error= 2.35D-08 at cycle  23 NSaved=  20.
 NSaved=20 IEnMin=20 EnMin= -1550.89703496095     IErMin=20 ErrMin= 2.35D-08
 ErrMax= 2.35D-08  0.00D+00 EMaxC= 1.00D-01 BMatC= 8.63D-13 BMatP= 6.63D-12
 IDIUse=1 WtCom= 1.00D+00 WtEn= 0.00D+00
 Coeff-Com: -0.282D-06 0.153D-05-0.111D-04-0.206D-04-0.766D-05 0.362D-04
 Coeff-Com:  0.135D-04 0.108D-03-0.393D-04-0.283D-03-0.679D-03 0.752D-04
 Coeff-Com:  0.180D-02 0.388D-02 0.149D-02-0.274D-01-0.362D-01 0.210D-01
 Coeff-Com:  0.300D+00 0.737D+00
 Coeff:     -0.282D-06 0.153D-05-0.111D-04-0.206D-04-0.766D-05 0.362D-04
 Coeff:      0.135D-04 0.108D-03-0.393D-04-0.283D-03-0.679D-03 0.752D-04
 Coeff:      0.180D-02 0.388D-02 0.149D-02-0.274D-01-0.362D-01 0.210D-01
 Coeff:      0.300D+00 0.737D+00
 Gap=     0.117 Goal=   None    Shift=    0.000
 Gap=     0.110 Goal=   None    Shift=    0.000
 RMSDP=1.51D-08 MaxDP=2.07D-06 DE=-1.68D-11 OVMax= 1.70D-06

 Cycle  24  Pass 1  IDiag  1:
 RMSU=  9.06D-09    CP:  1.00D+00  1.57D+00  8.73D-01
 E= -1550.89703496094     Delta-E=        0.000000000011 Rises=F Damp=F
 DIIS: error= 4.31D-09 at cycle  24 NSaved=  20.
 NSaved=20 IEnMin=19 EnMin= -1550.89703496095     IErMin=20 ErrMin= 4.31D-09
 ErrMax= 4.31D-09  0.00D+00 EMaxC= 1.00D-01 BMatC= 5.06D-14 BMatP= 8.63D-13
 IDIUse=1 WtCom= 1.00D+00 WtEn= 0.00D+00
 Coeff-Com:  0.259D-06-0.223D-05-0.420D-05-0.270D-05 0.177D-05-0.611D-05
 Coeff-Com:  0.226D-04 0.346D-04-0.736D-04-0.175D-03-0.175D-03 0.328D-03
 Coeff-Com:  0.143D-02 0.214D-02-0.658D-02-0.140D-01-0.199D-01 0.347D-01
 Coeff-Com:  0.257D+00 0.746D+00
 Coeff:      0.259D-06-0.223D-05-0.420D-05-0.270D-05 0.177D-05-0.611D-05
 Coeff:      0.226D-04 0.346D-04-0.736D-04-0.175D-03-0.175D-03 0.328D-03
 Coeff:      0.143D-02 0.214D-02-0.658D-02-0.140D-01-0.199D-01 0.347D-01
 Coeff:      0.257D+00 0.746D+00
 Gap=     0.117 Goal=   None    Shift=    0.000
 Gap=     0.110 Goal=   None    Shift=    0.000
 RMSDP=5.46D-09 MaxDP=8.57D-07 DE= 1.14D-11 OVMax= 5.29D-07

 SCF Done:  E(UB3LYP) =  -1550.89703496     A.U. after   24 cycles
            NFock= 24  Conv=0.55D-08     -V/T= 2.0027
 <Sx>= 0.0000 <Sy>= 0.0000 <Sz>= 0.0000 <S**2>= 0.2679 S= 0.2197
 <L.S>=  0.00000000000    
 KE= 1.546739616129D+03 PE=-5.558344082498D+03 EE= 1.519709074306D+03
 Annihilation of the first spin contaminant:
 S**2 before annihilation     0.2679,   after     0.0155
 Leave Link  502 at Mon Mar 13 20:04:34 2023, MaxMem=  2147483648 cpu:            1198.8 elap:             100.5
 (Enter /u/local/apps/gaussian/16_avx/l801.exe)
 DoSCS=F DFT=T ScalE2(SS,OS)=  1.000000  1.000000
 Range of M.O.s used for correlation:     1   308
 NBasis=   308 NAE=    55 NBE=    55 NFC=     0 NFV=     0
 NROrb=    308 NOA=    55 NOB=    55 NVA=   253 NVB=   253

 **** Warning!!: The largest alpha MO coefficient is  0.97695731D+02


 **** Warning!!: The largest beta MO coefficient is  0.10203145D+03

 Leave Link  801 at Mon Mar 13 20:04:34 2023, MaxMem=  2147483648 cpu:               0.4 elap:               0.0
 (Enter /u/local/apps/gaussian/16_avx/l1101.exe)
 Using compressed storage, NAtomX=    16.
 Will process     17 centers per pass.
 Leave Link 1101 at Mon Mar 13 20:04:34 2023, MaxMem=  2147483648 cpu:               3.7 elap:               0.3
 (Enter /u/local/apps/gaussian/16_avx/l1102.exe)
 Symmetrizing basis deriv contribution to polar:
 IMax=3 JMax=2 DiffMx= 0.00D+00
 Leave Link 1102 at Mon Mar 13 20:04:34 2023, MaxMem=  2147483648 cpu:               0.6 elap:               0.1
 (Enter /u/local/apps/gaussian/16_avx/l1110.exe)
 Forming Gx(P) for the SCF density, NAtomX=    16.
 Integral derivatives from FoFJK, PRISM(SPDF).
 Do as many integral derivatives as possible in FoFJK.
 G2DrvN: MDV=    2147482360.
 G2DrvN: will do    17 centers at a time, making    1 passes.
 Calling FoFCou, ICntrl=  3107 FMM=F I1Cent=   0 AccDes= 0.00D+00.
 FoFJK:  IHMeth= 1 ICntrl=    3107 DoSepK=F KAlg= 0 I1Cent=           0 FoldK=F
 IRaf=         0 NMat=       1 IRICut=       1 DoRegI=T DoRafI=F ISym2E= 0 IDoP0=0 IntGTp=1.
 FoFCou: FMM=F IPFlag=           0 FMFlag=      100000 FMFlg1=           0
         NFxFlg=           0 DoJE=F BraDBF=F KetDBF=F FulRan=T
         wScrn=  0.000000 ICntrl=      3107 IOpCl=  1 I1Cent=           0 NGrid=           0
         NMat0=    1 NMatS0=      1 NMatT0=    0 NMatD0=    1 NMtDS0=    0 NMtDT0=    0
 Symmetry not used in FoFCou.
 End of G2Drv F.D. properties file   721 does not exist.
 End of G2Drv F.D. properties file   722 does not exist.
 End of G2Drv F.D. properties file   788 does not exist.
 Leave Link 1110 at Mon Mar 13 20:06:06 2023, MaxMem=  2147483648 cpu:            1087.7 elap:              91.3
 (Enter /u/local/apps/gaussian/16_avx/l1002.exe)
 Minotr:  UHF open shell wavefunction.
          IDoAtm=1111111111111111
          Direct CPHF calculation.
          Differentiating once with respect to nuclear coordinates.
          Requested convergence is 1.0D-08 RMS, and 1.0D-07 maximum.
          Secondary convergence is 1.0D-12 RMS, and 1.0D-12 maximum.
          NewPWx=T KeepS1=F KeepF1=F KeepIn=T MapXYZ=F SortEE=F KeepMc=T.
         4895 words used for storage of precomputed grid.
 Two-electron integrals replicated using symmetry.
          MDV=    2147483648 using IRadAn=       1.
          Solving linear equations simultaneously, MaxMat=     384.
 FoF2E skips out because all densities are zero.
 CalDSu exits because no D1Ps are significant.
 FoFJK:  IHMeth= 1 ICntrl=       0 DoSepK=F KAlg= 0 I1Cent=           0 FoldK=F
 IRaf= 860000000 NMat=      48 IRICut=     120 DoRegI=T DoRafI=T ISym2E= 2 IDoP0=3 IntGTp=3.
 FoFCou: FMM=F IPFlag=           0 FMFlag=      100000 FMFlg1=           0
         NFxFlg=           0 DoJE=F BraDBF=F KetDBF=F FulRan=T
         wScrn=  0.000000 ICntrl=         0 IOpCl=  1 I1Cent=           0 NGrid=           0
         NMat0=   48 NMatS0=     48 NMatT0=    0 NMatD0=   48 NMtDS0=    0 NMtDT0=    0
 Integrals replicated using symmetry in FoFCou.
 Raff kept on since  84.80% of shell-pairs survive, threshold=   0.20 IRatSp=85.
          There are    51 degrees of freedom in the 1st order CPHF.  IDoFFX=6 NUNeed=     0.
     45 vectors produced by pass  0 Test12= 5.46D-14 1.96D-09 XBig12= 4.57D-01 2.88D-01.
 AX will form    45 AO Fock derivatives at one time.
     45 vectors produced by pass  1 Test12= 5.46D-14 1.96D-09 XBig12= 1.13D-01 1.47D-01.
     45 vectors produced by pass  2 Test12= 5.46D-14 1.96D-09 XBig12= 3.38D-03 1.15D-02.
     45 vectors produced by pass  3 Test12= 5.46D-14 1.96D-09 XBig12= 5.21D-05 1.71D-03.
     45 vectors produced by pass  4 Test12= 5.46D-14 1.96D-09 XBig12= 5.96D-07 1.38D-04.
     45 vectors produced by pass  5 Test12= 5.46D-14 1.96D-09 XBig12= 6.34D-09 8.54D-06.
     45 vectors produced by pass  6 Test12= 5.46D-14 1.96D-09 XBig12= 4.05D-11 7.94D-07.
     18 vectors produced by pass  7 Test12= 5.46D-14 1.96D-09 XBig12= 2.09D-13 3.81D-08.
      5 vectors produced by pass  8 Test12= 5.46D-14 1.96D-09 XBig12= 1.80D-15 4.02D-09.
 InvSVY:  IOpt=1 It=  1 EMax= 1.11D-15
 Solved reduced A of dimension   338 with    51 vectors.
 End of Minotr F.D. properties file   721 does not exist.
 End of Minotr F.D. properties file   722 does not exist.
 End of Minotr F.D. properties file   788 does not exist.
 Leave Link 1002 at Mon Mar 13 20:09:59 2023, MaxMem=  2147483648 cpu:            2781.2 elap:             233.5
 (Enter /u/local/apps/gaussian/16_avx/l601.exe)
 Copying SCF densities to generalized density rwf, IOpCl= 1 IROHF=0.

 **********************************************************************

            Population analysis using the SCF density.

 **********************************************************************

 Orbital symmetries:
 Alpha Orbitals:
       Occupied  (A) (A) (A) (A) (A) (A) (A) (A) (A) (A) (A) (A)
                 (A) (A) (A) (A) (A) (A) (A) (A) (A) (A) (A) (A)
                 (A) (A) (A) (A) (A) (A) (A) (A) (A) (A) (A) (A)
                 (A) (A) (A) (A) (A) (A) (A) (A) (A) (A) (A) (A)
                 (A) (A) (A) (A) (A) (A) (A)
       Virtual   (A) (A) (A) (A) (A) (A) (A) (A) (A) (A) (A) (A)
                 (A) (A) (A) (A) (A) (A) (A) (A) (A) (A) (A) (A)
                 (A) (A) (A) (A) (A) (A) (A) (A) (A) (A) (A) (A)
                 (A) (A) (A) (A) (A) (A) (A) (A) (A) (A) (A) (A)
                 (A) (A) (A) (A) (A) (A) (A) (A) (A) (A) (A) (A)
                 (A) (A) (A) (A) (A) (A) (A) (A) (A) (A) (A) (A)
                 (A) (A) (A) (A) (A) (A) (A) (A) (A) (A) (A) (A)
                 (A) (A) (A) (A) (A) (A) (A) (A) (A) (A) (A) (A)
                 (A) (A) (A) (A) (A) (A) (A) (A) (A) (A) (A) (A)
                 (A) (A) (A) (A) (A) (A) (A) (A) (A) (A) (A) (A)
                 (A) (A) (A) (A) (A) (A) (A) (A) (A) (A) (A) (A)
                 (A) (A) (A) (A) (A) (A) (A) (A) (A) (A) (A) (A)
                 (A) (A) (A) (A) (A) (A) (A) (A) (A) (A) (A) (A)
                 (A) (A) (A) (A) (A) (A) (A) (A) (A) (A) (A) (A)
                 (A) (A) (A) (A) (A) (A) (A) (A) (A) (A) (A) (A)
                 (A) (A) (A) (A) (A) (A) (A) (A) (A) (A) (A) (A)
                 (A) (A) (A) (A) (A) (A) (A) (A) (A) (A) (A) (A)
                 (A) (A) (A) (A) (A) (A) (A) (A) (A) (A) (A) (A)
                 (A) (A) (A) (A) (A) (A) (A) (A) (A) (A) (A) (A)
                 (A) (A) (A) (A) (A) (A) (A) (A) (A) (A) (A) (A)
                 (A) (A) (A) (A) (A) (A) (A) (A) (A) (A) (A) (A)
                 (A)
 Beta  Orbitals:
       Occupied  (A) (A) (A) (A) (A) (A) (A) (A) (A) (A) (A) (A)
                 (A) (A) (A) (A) (A) (A) (A) (A) (A) (A) (A) (A)
                 (A) (A) (A) (A) (A) (A) (A) (A) (A) (A) (A) (A)
                 (A) (A) (A) (A) (A) (A) (A) (A) (A) (A) (A) (A)
                 (A) (A) (A) (A) (A) (A) (A)
       Virtual   (A) (A) (A) (A) (A) (A) (A) (A) (A) (A) (A) (A)
                 (A) (A) (A) (A) (A) (A) (A) (A) (A) (A) (A) (A)
                 (A) (A) (A) (A) (A) (A) (A) (A) (A) (A) (A) (A)
                 (A) (A) (A) (A) (A) (A) (A) (A) (A) (A) (A) (A)
                 (A) (A) (A) (A) (A) (A) (A) (A) (A) (A) (A) (A)
                 (A) (A) (A) (A) (A) (A) (A) (A) (A) (A) (A) (A)
                 (A) (A) (A) (A) (A) (A) (A) (A) (A) (A) (A) (A)
                 (A) (A) (A) (A) (A) (A) (A) (A) (A) (A) (A) (A)
                 (A) (A) (A) (A) (A) (A) (A) (A) (A) (A) (A) (A)
                 (A) (A) (A) (A) (A) (A) (A) (A) (A) (A) (A) (A)
                 (A) (A) (A) (A) (A) (A) (A) (A) (A) (A) (A) (A)
                 (A) (A) (A) (A) (A) (A) (A) (A) (A) (A) (A) (A)
                 (A) (A) (A) (A) (A) (A) (A) (A) (A) (A) (A) (A)
                 (A) (A) (A) (A) (A) (A) (A) (A) (A) (A) (A) (A)
                 (A) (A) (A) (A) (A) (A) (A) (A) (A) (A) (A) (A)
                 (A) (A) (A) (A) (A) (A) (A) (A) (A) (A) (A) (A)
                 (A) (A) (A) (A) (A) (A) (A) (A) (A) (A) (A) (A)
                 (A) (A) (A) (A) (A) (A) (A) (A) (A) (A) (A) (A)
                 (A) (A) (A) (A) (A) (A) (A) (A) (A) (A) (A) (A)
                 (A) (A) (A) (A) (A) (A) (A) (A) (A) (A) (A) (A)
                 (A) (A) (A) (A) (A) (A) (A) (A) (A) (A) (A) (A)
                 (A)
 The electronic state is 1-A.
 Alpha  occ. eigenvalues -- -101.58774-101.58588 -24.74308 -24.74275 -24.73132
 Alpha  occ. eigenvalues --  -24.73085 -10.38311 -10.36419 -10.30911 -10.22046
 Alpha  occ. eigenvalues --  -10.21368 -10.20896  -9.50227  -9.49957  -7.26720
 Alpha  occ. eigenvalues --   -7.26474  -7.25686  -7.25647  -7.25403  -7.25391
 Alpha  occ. eigenvalues --   -1.31924  -1.30153  -1.26047  -1.24634  -0.93256
 Alpha  occ. eigenvalues --   -0.85920  -0.83064  -0.80691  -0.75313  -0.67729
 Alpha  occ. eigenvalues --   -0.64286  -0.62203  -0.61760  -0.57902  -0.57375
 Alpha  occ. eigenvalues --   -0.55613  -0.53068  -0.52787  -0.49713  -0.48576
 Alpha  occ. eigenvalues --   -0.48229  -0.47160  -0.46534  -0.45559  -0.44878
 Alpha  occ. eigenvalues --   -0.44328  -0.42187  -0.41644  -0.40747  -0.35204
 Alpha  occ. eigenvalues --   -0.35028  -0.34668  -0.32968  -0.30008  -0.23361
 Alpha virt. eigenvalues --   -0.11692  -0.03369  -0.01736  -0.01226   0.00556
 Alpha virt. eigenvalues --    0.01055   0.01449   0.03062   0.03519   0.03959
 Alpha virt. eigenvalues --    0.04419   0.05198   0.06114   0.07074   0.07782
 Alpha virt. eigenvalues --    0.08097   0.08463   0.08853   0.09402   0.09836
 Alpha virt. eigenvalues --    0.10263   0.10824   0.11020   0.11631   0.12005
 Alpha virt. eigenvalues --    0.12561   0.12852   0.13591   0.14232   0.14459
 Alpha virt. eigenvalues --    0.15052   0.15328   0.16073   0.16318   0.17485
 Alpha virt. eigenvalues --    0.18046   0.18908   0.19290   0.20564   0.21811
 Alpha virt. eigenvalues --    0.22207   0.22589   0.23298   0.24420   0.24523
 Alpha virt. eigenvalues --    0.25757   0.26719   0.27907   0.28351   0.28669
 Alpha virt. eigenvalues --    0.28920   0.30192   0.30834   0.31176   0.32091
 Alpha virt. eigenvalues --    0.33523   0.34697   0.35047   0.35457   0.35986
 Alpha virt. eigenvalues --    0.36923   0.37634   0.38099   0.39740   0.39780
 Alpha virt. eigenvalues --    0.41234   0.41559   0.42624   0.43671   0.44438
 Alpha virt. eigenvalues --    0.45346   0.46206   0.47586   0.48415   0.49781
 Alpha virt. eigenvalues --    0.51705   0.52629   0.54513   0.55398   0.55958
 Alpha virt. eigenvalues --    0.58246   0.59613   0.60104   0.60364   0.64175
 Alpha virt. eigenvalues --    0.65096   0.66109   0.68166   0.68935   0.70258
 Alpha virt. eigenvalues --    0.71156   0.72181   0.73136   0.75253   0.75660
 Alpha virt. eigenvalues --    0.77994   0.81244   0.81629   0.83204   0.84349
 Alpha virt. eigenvalues --    0.85730   0.89671   0.89888   0.90948   0.91985
 Alpha virt. eigenvalues --    0.92997   0.93477   0.95011   0.98571   1.00760
 Alpha virt. eigenvalues --    1.03504   1.04206   1.06150   1.08905   1.12615
 Alpha virt. eigenvalues --    1.13880   1.17203   1.19265   1.21779   1.23587
 Alpha virt. eigenvalues --    1.29463   1.32514   1.32941   1.35016   1.36915
 Alpha virt. eigenvalues --    1.39339   1.40732   1.41810   1.43765   1.43965
 Alpha virt. eigenvalues --    1.44984   1.45672   1.47394   1.47865   1.50057
 Alpha virt. eigenvalues --    1.50747   1.53465   1.54906   1.56315   1.57304
 Alpha virt. eigenvalues --    1.59925   1.62385   1.64920   1.66353   1.70016
 Alpha virt. eigenvalues --    1.71578   1.77725   1.77917   1.81294   1.82330
 Alpha virt. eigenvalues --    1.83322   1.84857   1.87941   1.92286   1.93664
 Alpha virt. eigenvalues --    1.95858   1.98669   2.01492   2.03071   2.06413
 Alpha virt. eigenvalues --    2.08777   2.09685   2.12339   2.13951   2.19333
 Alpha virt. eigenvalues --    2.23027   2.24072   2.24718   2.28588   2.30839
 Alpha virt. eigenvalues --    2.37378   2.39827   2.46905   2.50943   2.54773
 Alpha virt. eigenvalues --    2.58070   2.61833   2.65002   2.67766   2.69010
 Alpha virt. eigenvalues --    2.70467   2.72959   2.79424   2.81523   2.82919
 Alpha virt. eigenvalues --    2.92162   2.94582   2.97644   2.99601   3.03838
 Alpha virt. eigenvalues --    3.04379   3.16738   3.19761   3.23564   3.34612
 Alpha virt. eigenvalues --    3.45844   3.46327   3.72003   3.72691   3.73790
 Alpha virt. eigenvalues --    3.74716   3.75141   3.75365   3.76371   3.78010
 Alpha virt. eigenvalues --    3.79007   3.79519   3.82982   3.84808   3.96417
 Alpha virt. eigenvalues --    3.97463   3.98590   4.01449   4.12848   4.17469
 Alpha virt. eigenvalues --    4.18251   4.32669   4.51976   4.81648   4.88192
 Alpha virt. eigenvalues --    4.93319   6.27316   6.29602   6.31059   6.34063
 Alpha virt. eigenvalues --    6.34616   6.36652   6.37244   6.38424   6.43127
 Alpha virt. eigenvalues --    6.64817   6.69426   6.84051   9.73270   9.79685
 Alpha virt. eigenvalues --   23.45338  23.47738  23.80164  23.85226  24.06701
 Alpha virt. eigenvalues --   24.11073  25.78999  25.90238  25.92811  26.12444
 Alpha virt. eigenvalues --   26.42421  26.48843  66.71382  66.73922  66.74946
 Alpha virt. eigenvalues --   66.79008 215.71950 215.79393
  Beta  occ. eigenvalues -- -101.58787-101.58604 -24.74148 -24.74116 -24.73159
  Beta  occ. eigenvalues --  -24.73116 -10.38636 -10.35711 -10.31282 -10.21881
  Beta  occ. eigenvalues --  -10.21779 -10.20674  -9.50239  -9.49972  -7.26713
  Beta  occ. eigenvalues --   -7.26467  -7.25740  -7.25654  -7.25467  -7.25400
  Beta  occ. eigenvalues --   -1.31639  -1.30116  -1.25795  -1.24615  -0.93578
  Beta  occ. eigenvalues --   -0.86018  -0.83314  -0.80385  -0.75240  -0.67519
  Beta  occ. eigenvalues --   -0.64664  -0.62039  -0.61633  -0.57827  -0.57325
  Beta  occ. eigenvalues --   -0.55320  -0.53021  -0.52467  -0.49662  -0.48676
  Beta  occ. eigenvalues --   -0.47751  -0.47088  -0.46346  -0.45657  -0.44780
  Beta  occ. eigenvalues --   -0.44306  -0.42877  -0.41926  -0.40774  -0.35589
  Beta  occ. eigenvalues --   -0.35165  -0.34922  -0.33002  -0.30089  -0.22119
  Beta virt. eigenvalues --   -0.11126  -0.03789  -0.02018  -0.01379   0.00504
  Beta virt. eigenvalues --    0.00952   0.01395   0.03135   0.03720   0.04007
  Beta virt. eigenvalues --    0.04277   0.05212   0.06137   0.06962   0.07695
  Beta virt. eigenvalues --    0.08066   0.08513   0.08864   0.09413   0.09908
  Beta virt. eigenvalues --    0.10306   0.10828   0.11030   0.11593   0.12014
  Beta virt. eigenvalues --    0.12562   0.12815   0.13564   0.14218   0.14409
  Beta virt. eigenvalues --    0.15020   0.15285   0.16127   0.16361   0.17513
  Beta virt. eigenvalues --    0.18101   0.18930   0.19292   0.20578   0.21805
  Beta virt. eigenvalues --    0.22218   0.22695   0.23504   0.24337   0.24549
  Beta virt. eigenvalues --    0.25823   0.26767   0.27956   0.28317   0.28694
  Beta virt. eigenvalues --    0.28883   0.30182   0.30776   0.31178   0.32185
  Beta virt. eigenvalues --    0.33894   0.34740   0.35039   0.35438   0.36003
  Beta virt. eigenvalues --    0.36936   0.37599   0.38094   0.39743   0.39826
  Beta virt. eigenvalues --    0.41212   0.41568   0.42637   0.43621   0.44379
  Beta virt. eigenvalues --    0.45338   0.46172   0.47544   0.48365   0.49689
  Beta virt. eigenvalues --    0.51708   0.52544   0.54154   0.55303   0.55680
  Beta virt. eigenvalues --    0.58202   0.59757   0.60134   0.61714   0.63815
  Beta virt. eigenvalues --    0.65068   0.65956   0.68124   0.69075   0.70199
  Beta virt. eigenvalues --    0.71160   0.72170   0.72997   0.75271   0.75578
  Beta virt. eigenvalues --    0.77947   0.81015   0.81616   0.83094   0.84223
  Beta virt. eigenvalues --    0.85804   0.89559   0.89748   0.90906   0.91958
  Beta virt. eigenvalues --    0.92938   0.93339   0.94786   0.98428   1.00945
  Beta virt. eigenvalues --    1.03463   1.03982   1.05928   1.09047   1.12386
  Beta virt. eigenvalues --    1.14095   1.17177   1.19144   1.21658   1.23488
  Beta virt. eigenvalues --    1.29452   1.32800   1.33024   1.35283   1.37002
  Beta virt. eigenvalues --    1.39459   1.40163   1.41807   1.43684   1.43847
  Beta virt. eigenvalues --    1.44787   1.45599   1.47457   1.48015   1.50206
  Beta virt. eigenvalues --    1.50748   1.53589   1.54896   1.56409   1.57192
  Beta virt. eigenvalues --    1.60197   1.62257   1.64770   1.66937   1.70207
  Beta virt. eigenvalues --    1.71412   1.77175   1.77982   1.81253   1.82277
  Beta virt. eigenvalues --    1.83496   1.84800   1.87944   1.92820   1.93816
  Beta virt. eigenvalues --    1.95876   1.98657   2.01366   2.02953   2.06175
  Beta virt. eigenvalues --    2.08873   2.09753   2.12147   2.14115   2.19391
  Beta virt. eigenvalues --    2.22981   2.23917   2.24529   2.28507   2.30704
  Beta virt. eigenvalues --    2.37349   2.39677   2.46858   2.50890   2.54646
  Beta virt. eigenvalues --    2.57925   2.61829   2.65759   2.67839   2.68890
  Beta virt. eigenvalues --    2.70578   2.73132   2.79057   2.81441   2.82604
  Beta virt. eigenvalues --    2.91601   2.94470   2.97966   2.99494   3.03919
  Beta virt. eigenvalues --    3.04280   3.16651   3.19778   3.23432   3.34351
  Beta virt. eigenvalues --    3.45746   3.46466   3.72192   3.72950   3.74132
  Beta virt. eigenvalues --    3.74733   3.75322   3.75468   3.76607   3.78087
  Beta virt. eigenvalues --    3.79027   3.79576   3.83078   3.84978   3.96389
  Beta virt. eigenvalues --    3.97906   3.98689   4.01311   4.12968   4.17491
  Beta virt. eigenvalues --    4.18342   4.32418   4.52097   4.81787   4.88430
  Beta virt. eigenvalues --    4.93275   6.27687   6.30095   6.31310   6.34181
  Beta virt. eigenvalues --    6.34642   6.36591   6.37244   6.38483   6.43027
  Beta virt. eigenvalues --    6.64891   6.69540   6.84135   9.73238   9.79659
  Beta virt. eigenvalues --   23.45512  23.47565  23.80361  23.85055  24.06651
  Beta virt. eigenvalues --   24.11061  25.78921  25.90183  25.92789  26.12436
  Beta virt. eigenvalues --   26.42420  26.48847  66.71525  66.74048  66.74935
  Beta virt. eigenvalues --   66.79003 215.71936 215.79381
          Condensed to atoms (all electrons):
               1          2          3          4          5          6
     1  C    6.570221  -1.017000   0.283251  -0.260462  -0.038137  -0.008763
     2  C   -1.017000   7.214755  -0.520253   0.013942   0.278836   0.036882
     3  C    0.283251  -0.520253  11.172469  -2.877450   1.745022  -2.294257
     4  C   -0.260462   0.013942  -2.877450   8.848584  -2.074856   1.370218
     5  C   -0.038137   0.278836   1.745022  -2.074856  13.730952  -5.633973
     6  C   -0.008763   0.036882  -2.294257   1.370218  -5.633973  11.781936
     7  H    0.037793  -0.130483   0.220052   0.012294  -0.206252   0.114465
     8  H    0.031760  -0.164903   0.466740  -0.002286  -0.045362   0.014707
     9  H   -0.005158  -0.035855  -0.166746   0.528636  -0.258623   0.160384
    10  H   -0.002777   0.011135   0.036118  -0.079367   0.619277  -0.287999
    11  F    0.260697  -0.124032   0.026758  -0.028488   0.014829  -0.008175
    12  F    0.233199  -0.103779   0.009564   0.007687  -0.015608   0.003123
    13  F   -0.187649   0.343986  -0.202205   0.078007  -0.016824   0.004654
    14  F   -0.203788   0.368020  -0.089394  -0.056688   0.035844  -0.003638
    15  Cl  -0.005368   0.029722  -0.168501  -0.076694   0.056705  -0.204977
    16  Cl   0.032508   0.015273  -1.032105   0.599957  -1.423412   1.152420
               7          8          9         10         11         12
     1  C    0.037793   0.031760  -0.005158  -0.002777   0.260697   0.233199
     2  C   -0.130483  -0.164903  -0.035855   0.011135  -0.124032  -0.103779
     3  C    0.220052   0.466740  -0.166746   0.036118   0.026758   0.009564
     4  C    0.012294  -0.002286   0.528636  -0.079367  -0.028488   0.007687
     5  C   -0.206252  -0.045362  -0.258623   0.619277   0.014829  -0.015608
     6  C    0.114465   0.014707   0.160384  -0.287999  -0.008175   0.003123
     7  H    0.716672  -0.039703   0.035128  -0.011522  -0.001241  -0.001147
     8  H   -0.039703   0.510219  -0.012162  -0.001281   0.004602   0.009434
     9  H    0.035128  -0.012162   0.549405  -0.018713  -0.000528   0.002069
    10  H   -0.011522  -0.001281  -0.018713   0.515706   0.000018  -0.000202
    11  F   -0.001241   0.004602  -0.000528   0.000018   8.954094  -0.037131
    12  F   -0.001147   0.009434   0.002069  -0.000202  -0.037131   8.965730
    13  F    0.013684  -0.009219   0.005067  -0.000285   0.008760   0.007102
    14  F   -0.002187   0.005912  -0.005653   0.002583   0.008905   0.006613
    15  Cl  -0.007736  -0.004611  -0.007808   0.035617  -0.000038  -0.000045
    16  Cl   0.111328  -0.011853   0.036588  -0.019751  -0.004755  -0.001331
              13         14         15         16
     1  C   -0.187649  -0.203788  -0.005368   0.032508
     2  C    0.343986   0.368020   0.029722   0.015273
     3  C   -0.202205  -0.089394  -0.168501  -1.032105
     4  C    0.078007  -0.056688  -0.076694   0.599957
     5  C   -0.016824   0.035844   0.056705  -1.423412
     6  C    0.004654  -0.003638  -0.204977   1.152420
     7  H    0.013684  -0.002187  -0.007736   0.111328
     8  H   -0.009219   0.005912  -0.004611  -0.011853
     9  H    0.005067  -0.005653  -0.007808   0.036588
    10  H   -0.000285   0.002583   0.035617  -0.019751
    11  F    0.008760   0.008905  -0.000038  -0.004755
    12  F    0.007102   0.006613  -0.000045  -0.001331
    13  F    9.009991  -0.033310   0.000294   0.001358
    14  F   -0.033310   8.970796  -0.002351  -0.009202
    15  Cl   0.000294  -0.002351  16.936166  -0.008675
    16  Cl   0.001358  -0.009202  -0.008675  17.082706
          Atomic-Atomic Spin Densities.
               1          2          3          4          5          6
     1  C    0.557469   0.003016  -0.021502  -0.012554   0.012978  -0.004101
     2  C    0.003016  -0.364119   0.000892   0.129105  -0.031478  -0.005246
     3  C   -0.021502   0.000892   0.453662  -0.034607  -0.148092   0.047806
     4  C   -0.012554   0.129105  -0.034607  -0.373770  -0.065752   0.092795
     5  C    0.012978  -0.031478  -0.148092  -0.065752   0.508999  -0.240889
     6  C   -0.004101  -0.005246   0.047806   0.092795  -0.240889  -0.126068
     7  H    0.002716   0.011649  -0.015584  -0.007148   0.007394  -0.001611
     8  H   -0.000439   0.031610   0.000548  -0.014461   0.001915   0.001689
     9  H   -0.000685   0.007300  -0.001858  -0.002362  -0.001209   0.000500
    10  H    0.000336  -0.000952  -0.004982  -0.002982   0.014587  -0.010988
    11  F   -0.066192   0.006129   0.005379  -0.001376  -0.002086   0.001125
    12  F   -0.064739   0.008224   0.005322  -0.002044  -0.001309   0.000500
    13  F   -0.005658   0.028974  -0.032986  -0.009665   0.014727  -0.003581
    14  F   -0.006322   0.026323  -0.034328  -0.012440   0.022854  -0.005536
    15  Cl   0.000344  -0.000214  -0.008240  -0.004656   0.016788   0.017257
    16  Cl   0.001846   0.001663  -0.031994  -0.002007   0.022443   0.024992
               7          8          9         10         11         12
     1  C    0.002716  -0.000439  -0.000685   0.000336  -0.066192  -0.064739
     2  C    0.011649   0.031610   0.007300  -0.000952   0.006129   0.008224
     3  C   -0.015584   0.000548  -0.001858  -0.004982   0.005379   0.005322
     4  C   -0.007148  -0.014461  -0.002362  -0.002982  -0.001376  -0.002044
     5  C    0.007394   0.001915  -0.001209   0.014587  -0.002086  -0.001309
     6  C   -0.001611   0.001689   0.000500  -0.010988   0.001125   0.000500
     7  H   -0.008090  -0.001168   0.000394   0.000226  -0.001362  -0.000138
     8  H   -0.001168  -0.020621  -0.002548  -0.000046  -0.000236  -0.001495
     9  H    0.000394  -0.002548   0.020967  -0.000518  -0.000089  -0.000095
    10  H    0.000226  -0.000046  -0.000518  -0.004544  -0.000018  -0.000018
    11  F   -0.001362  -0.000236  -0.000089  -0.000018   0.075907   0.004787
    12  F   -0.000138  -0.001495  -0.000095  -0.000018   0.004787   0.074308
    13  F    0.000273  -0.003240  -0.000584   0.000417   0.000187  -0.000384
    14  F    0.000063  -0.001571  -0.000255   0.000538   0.000303   0.000092
    15  Cl   0.000425  -0.000143   0.000112   0.001260  -0.000043  -0.000007
    16  Cl   0.004178  -0.000009   0.000363   0.000653  -0.001127  -0.000326
              13         14         15         16
     1  C   -0.005658  -0.006322   0.000344   0.001846
     2  C    0.028974   0.026323  -0.000214   0.001663
     3  C   -0.032986  -0.034328  -0.008240  -0.031994
     4  C   -0.009665  -0.012440  -0.004656  -0.002007
     5  C    0.014727   0.022854   0.016788   0.022443
     6  C   -0.003581  -0.005536   0.017257   0.024992
     7  H    0.000273   0.000063   0.000425   0.004178
     8  H   -0.003240  -0.001571  -0.000143  -0.000009
     9  H   -0.000584  -0.000255   0.000112   0.000363
    10  H    0.000417   0.000538   0.001260   0.000653
    11  F    0.000187   0.000303  -0.000043  -0.001127
    12  F   -0.000384   0.000092  -0.000007  -0.000326
    13  F   -0.007678   0.004881   0.000138   0.001222
    14  F    0.004881  -0.009831   0.000380   0.002291
    15  Cl   0.000138   0.000380  -0.041492  -0.001343
    16  Cl   0.001222   0.002291  -0.001343  -0.041685
 Mulliken charges and spin densities:
               1          2
     1  C    0.279671   0.396513
     2  C   -0.216247  -0.147122
     3  C   -0.609061   0.179436
     4  C   -0.003035  -0.323924
     5  C   -0.768419   0.131870
     6  C   -0.197009  -0.211355
     7  H    0.138857  -0.007785
     8  H    0.248006  -0.010216
     9  H    0.193971   0.019435
    10  H    0.201443  -0.007031
    11  F   -0.074275   0.021289
    12  F   -0.085279   0.022680
    13  F   -0.023410  -0.012958
    14  F    0.007539  -0.012557
    15  Cl   0.428300  -0.019434
    16  Cl   0.478946  -0.018840
 Sum of Mulliken charges =  -0.00000   0.00000
 Mulliken charges and spin densities with hydrogens summed into heavy atoms:
               1          2
     1  C    0.279671   0.396513
     2  C   -0.216247  -0.147122
     3  C   -0.222198   0.161435
     4  C    0.190936  -0.304490
     5  C   -0.566975   0.124839
     6  C   -0.197009  -0.211355
    11  F   -0.074275   0.021289
    12  F   -0.085279   0.022680
    13  F   -0.023410  -0.012958
    14  F    0.007539  -0.012557
    15  Cl   0.428300  -0.019434
    16  Cl   0.478946  -0.018840
 APT charges:
               1
     1  C    0.166435
     2  C   -0.219738
     3  C   -1.146195
     4  C   -0.430178
     5  C   -1.012568
     6  C    0.260575
     7  H    0.186096
     8  H    0.552738
     9  H    0.566780
    10  H    0.638171
    11  F   -0.067538
    12  F    0.073618
    13  F    0.020141
    14  F   -0.067057
    15  Cl   0.165028
    16  Cl   0.313693
 Sum of APT charges =  -0.00000
 APT charges with hydrogens summed into heavy atoms:
               1
     1  C    0.166435
     2  C   -0.219738
     3  C   -0.407361
     4  C    0.136602
     5  C   -0.374397
     6  C    0.260575
    11  F   -0.067538
    12  F    0.073618
    13  F    0.020141
    14  F   -0.067057
    15  Cl   0.165028
    16  Cl   0.313693
 Electronic spatial extent (au):  <R**2>=           3058.8327
 Charge=             -0.0000 electrons
 Dipole moment (field-independent basis, Debye):
    X=              0.6308    Y=              1.4380    Z=             -1.1509  Tot=              1.9468
 Quadrupole moment (field-independent basis, Debye-Ang):
   XX=            -85.1395   YY=            -78.9789   ZZ=            -82.5199
   XY=              2.7319   XZ=              1.0206   YZ=             -1.4027
 Traceless Quadrupole moment (field-independent basis, Debye-Ang):
   XX=             -2.9267   YY=              3.2339   ZZ=             -0.3071
   XY=              2.7319   XZ=              1.0206   YZ=             -1.4027
 Octapole moment (field-independent basis, Debye-Ang**2):
  XXX=            -22.1845  YYY=              0.4708  ZZZ=             12.4704  XYY=             -5.2233
  XXY=              0.8586  XXZ=              9.8438  XZZ=            -16.5593  YZZ=             -4.6482
  YYZ=             -0.5482  XYZ=              2.3880
 Hexadecapole moment (field-independent basis, Debye-Ang**3):
 XXXX=          -2731.1223 YYYY=           -597.0174 ZZZZ=           -308.4616 XXXY=             12.5312
 XXXZ=              8.7490 YYYX=             14.0217 YYYZ=              5.0424 ZZZX=             11.0635
 ZZZY=             15.6543 XXYY=           -563.8612 XXZZ=           -505.6082 YYZZ=           -156.5726
 XXYZ=             -4.2574 YYXZ=              5.6259 ZZXY=             -3.6279
 N-N= 9.409983571027D+02 E-N=-5.558344083460D+03  KE= 1.546739616129D+03
  Exact polarizability:   0.000   0.000   0.000   0.000   0.000   0.000
 Approx polarizability: 386.999  61.599 191.298 -21.217 -25.215 121.463
                          Isotropic Fermi Contact Couplings
        Atom                 a.u.       MegaHertz       Gauss      10(-4) cm-1
     1  C(13)              0.10805      60.73175      21.67060      20.25793
     2  C(13)             -0.07850     -44.12672     -15.74551     -14.71909
     3  C(13)              0.02316      13.01989       4.64582       4.34297
     4  C(13)             -0.02017     -11.33716      -4.04538      -3.78167
     5  C(13)              0.01859      10.45214       3.72958       3.48646
     6  C(13)             -0.02489     -13.99120      -4.99241      -4.66696
     7  H(1)              -0.00402      -8.99399      -3.20928      -3.00007
     8  H(1)              -0.00463     -10.33919      -3.68928      -3.44878
     9  H(1)               0.00423       9.44672       3.37082       3.15109
    10  H(1)              -0.00144      -3.21129      -1.14587      -1.07117
    11  F(19)              0.02181      45.87805      16.37043      15.30327
    12  F(19)              0.02197      46.20925      16.48861      15.41375
    13  F(19)              0.00401       8.43847       3.01106       2.81477
    14  F(19)              0.00194       4.08510       1.45766       1.36264
    15  Cl(35)            -0.00470      -1.02938      -0.36731      -0.34336
    16  Cl(35)            -0.00508      -1.11264      -0.39702      -0.37114
 --------------------------------------------------------
       Center         ----  Spin Dipole Couplings  ----
                      3XX-RR        3YY-RR        3ZZ-RR
 --------------------------------------------------------
     1   Atom       -0.004219     -0.263656      0.267876
     2   Atom        0.017129      0.120362     -0.137491
     3   Atom       -0.027115     -0.074577      0.101692
     4   Atom        0.121854      0.164044     -0.285898
     5   Atom       -0.041751     -0.055465      0.097216
     6   Atom        0.103880      0.148446     -0.252326
     7   Atom       -0.003691      0.004645     -0.000954
     8   Atom        0.001941     -0.004496      0.002556
     9   Atom        0.016231     -0.017440      0.001209
    10   Atom       -0.002550     -0.000008      0.002559
    11   Atom        0.019658     -0.197558      0.177900
    12   Atom       -0.073370     -0.162223      0.235593
    13   Atom        0.000846      0.065206     -0.066052
    14   Atom        0.017799      0.040938     -0.058737
    15   Atom        0.104387      0.069693     -0.174080
[...]

 Dipole orientation:
     6          2.85305885          0.51834734         -2.23792923
     6          0.75392018          1.30293443         -0.79631133
     6          0.38750847         -1.10687362          2.05510978
     6         -1.77846381         -0.34463026          3.34572978
     6         -4.35154663         -1.10428044          3.04581887
     6         -5.43842404         -2.91859321          1.59996474
     1          0.38062095         -2.85063526          0.98559037
     1          2.18257938         -0.64587937          2.93739546
     1         -1.53217725          1.17304931          4.70388141
     1         -5.69386190         -0.07039140          4.20095632
     9          2.64371206         -1.56729917         -3.61802360
     9          5.13732682          0.71236679         -1.21172241
     9          1.02662952          3.52300024          0.40143987
     9         -1.47965630          1.18777753         -1.97468914
    17         -8.69200522         -3.39674024          1.68448531
    17         -3.86382843         -4.93466180         -0.43646663

 Electric dipole moment (dipole orientation):
 (Debye = 10**-18 statcoulomb cm , SI units = C m)
                  (au)            (Debye)         (10**-30 SI)
   Tot        0.674933D+00      0.171551D+01      0.572232D+01
   x          0.000000D+00      0.000000D+00      0.000000D+00
   y          0.000000D+00      0.000000D+00      0.000000D+00
   z          0.674933D+00      0.171551D+01      0.572232D+01

 Dipole polarizability, Alpha (dipole orientation).
 (esu units = cm**3 , SI units = C**2 m**2 J**-1)
 Alpha(0;0):
               (au)            (10**-24 esu)      (10**-40 SI)
   iso        0.136391D+03      0.202111D+02      0.224878D+02
   aniso      0.135784D+03      0.201210D+02      0.223877D+02
   xx         0.191159D+03      0.283268D+02      0.315178D+02
   yx         0.437621D+02      0.648488D+01      0.721540D+01
   yy         0.103652D+03      0.153596D+02      0.170899D+02
   zx        -0.440851D+02     -0.653274D+01     -0.726866D+01
   zy        -0.296495D+01     -0.439360D+00     -0.488854D+00
   zz         0.114362D+03      0.169468D+02      0.188558D+02

 ----------------------------------------------------------------------
 1\1\GINC-N7168\Freq\UB3LYP\6-311++G(d,p)\C6H4Cl2F4\ZHOUOH\13-Mar-2023\
 0\\#P Geom=AllCheck Guess=TCheck SCRF=Check GenChk UB3LYP/6-311++G(d,p
 ) Freq\\r\\0,1\C,1.9191121262,0.2552961972,0.0946723071\C,0.6900017903
 ,-0.3129357952,0.487946897\C,-0.4962593968,-0.3216214986,-1.1036812087
 \C,-1.7173577251,-0.8219070386,-0.6547788054\C,-2.86388543,-0.14163953
 78,-0.1414622961\C,-3.1618477611,1.1770742498,-0.0405301679\H,-0.40693
 05842,0.7214247137,-1.3791607808\H,0.1170347216,-1.0010768139,-1.68851
 74918\H,-1.802018765,-1.9031785757,-0.6077897132\H,-3.6532855059,-0.79
 10588392,0.2227412833\F,1.9634736256,1.5596937634,-0.1509145404\F,2.68
 19788481,-0.4242914163,-0.7554980998\F,0.7370644802,-1.6135626735,0.81
 79259638\F,-0.0012078136,0.3829227361,1.3976656706\Cl,-4.6817914104,1.
 6911542636,0.6346277018\Cl,-2.1431046699,2.4839318348,-0.5385792796\\V
 ersion=ES64L-G16RevA.03\State=1-A\HF=-1550.9049648\S2=0.297507\S2-1=0.
 \S2A=0.019513\RMSD=9.251e-10\RMSF=5.344e-06\ZeroPoint=0.0880145\Therma
 l=0.1005773\Dipole=-0.3391457,-0.4387799,-0.3846908\DipoleDeriv=1.0095
 841,-0.2676618,-0.3193153,0.7059075,1.1748942,0.2298661,-2.728052,0.17
 11541,0.2723484,-0.1876166,-0.019336,-0.1245043,-0.676451,1.297423,-0.
 0671326,0.5469979,-0.2128806,1.1548316,0.2888535,-0.0047661,-0.0009032
 ,0.125868,-0.0574954,-0.0011957,-0.0141953,0.0812751,-0.0287925,-0.152
 3035,-0.1262289,-0.1631032,-0.3100674,0.2653079,0.0156221,-0.0131952,-
 0.0524898,-0.1848698,0.0007545,0.0033183,0.0713955,0.2974207,-0.388858
 1,-0.0436746,-0.0148747,0.0071642,-0.0746849,1.0511634,0.1208196,-0.56
 05244,-0.3804667,0.9200831,-0.0895812,-0.5118041,-0.0806953,0.1589228,
 0.0619487,-0.0105678,-0.0024116,-0.0202934,-0.0132369,0.0373017,-0.026
 4174,0.0075427,0.0605168,0.0274777,0.0347414,0.0457033,0.0559552,0.028
 6534,-0.0430895,0.011581,-0.0381522,0.033736,0.0436831,-0.0015471,0.03
 6734,0.0043236,-0.0627827,-0.0015205,0.0356369,0.0142376,0.112891,0.00
 31854,-0.004081,0.0480956,-0.0475121,0.0208271,0.0238812,0.043923,0.01
 63043,0.1165694,-0.0241074,-0.0172764,0.0834557,-1.1391137,-0.8405238,
 -0.1003518,0.6656724,0.2064388,-0.1348312,-0.8255266,0.227588,0.204807
 2,0.6870111,-0.4216692,-0.0899407,1.4442782,-0.2733434,-0.3262046,-0.1
 153143,0.0347751,-0.0165225,0.3305825,-0.9113189,0.2772316,-0.0285975,
 0.2528203,-0.341426,-0.1098098,0.1238303,0.2427772,0.0301722,-0.341512
 4,-0.2414554,0.0938475,-0.1608895,-0.6429168,-0.9580059,0.2471763,0.26
 95761,0.2816615,-0.1781905,-0.0421813,0.4321124,-0.1087707,-0.1161588,
 -0.1139663,-0.340784,0.1847399,0.055002,-0.4916008,0.1362206,0.0630869
 ,0.1702845,-0.0599315\Polar=221.061357,-21.7595174,110.5320358,-3.2578
 423,3.6568391,77.5797039\Quadrupole=-1.2137518,1.2564491,-0.0426973,2.
 7064812,-0.88656,0.7236748\PG=C01 [X(C6H4Cl2F4)]\NImag=1\\0.38222150,0
 .03037765,0.55810635,-0.27920584,-0.03636286,0.32200271,-0.08387016,-0
 .05169096,0.12677447,0.23487521,-0.06176556,-0.08640840,0.05553295,0.0
 0495371,0.52690122,0.16431917,0.06755601,-0.07243168,-0.36863617,-0.06
 162967,0.26808265,-0.12027108,-0.03736251,-0.02764190,0.18066435,0.033
 87689,0.13982476,0.36272124,-0.02996598,-0.00485765,-0.00719612,0.0425
 3169,-0.01596889,0.02805300,-0.02112223,0.65737597,-0.05650310,-0.0171
 9533,-0.00836068,0.10948580,0.01833237,0.06109328,-0.31609785,-0.03536
 347,0.25590780,0.07594524,0.02690910,0.00456807,-0.15431424,-0.0288375
 4,-0.09360565,-0.17545485,-0.05645561,0.16043211,0.52289846,0.01285523
 ,0.00389641,-0.00279919,-0.02814705,-0.00401393,-0.01547741,-0.0776993
 2,-0.14475986,0.04774732,0.02431435,0.62832685,-0.02572484,-0.00772272
 ,-0.00814142,0.03892655,0.00526121,0.03348844,0.05920205,0.02328015,-0
 .11146883,-0.16439734,-0.00686127,0.19966237,-0.02632253,-0.00967791,-
 0.00049346,0.04540944,0.00838068,0.02780533,-0.07016216,-0.00028522,-0
 .00235644,-0.17462692,0.08339578,0.05372639,0.53241091,0.03530223,0.00
 956369,0.00964245,-0.05893221,-0.01054258,-0.03963433,0.05871969,0.029
 60727,0.02468807,-0.00919578,-0.13846823,0.00057229,-0.00203386,0.6951
 9280,0.01334023,0.00495090,0.00129088,-0.02255232,-0.00389319,-0.01428
 901,0.03112341,0.00158486,0.00596278,0.05488852,-0.03709395,-0.0757909
 0,-0.18503584,-0.01215867,0.19679545,0.00439258,0.00336047,-0.00083881
 ,-0.01137042,-0.00001418,-0.00445603,0.01130925,0.00459407,0.00125613,
 -0.01562174,0.02722556,0.00800565,-0.08790707,0.07062487,0.01656493,0.
 29409038,-0.02305911,-0.00243862,-0.01231628,0.03704268,0.00629202,0.0
 2967375,-0.04594270,-0.00896250,-0.01331245,0.07197830,-0.03109691,-0.
 02895064,0.03731503,-0.37220228,-0.00730174,-0.06343565,0.60143531,-0.
 00277912,-0.00191431,0.00029972,0.00503034,0.00003826,0.00164322,-0.00
 487855,-0.00198864,-0.00065479,0.00814594,-0.01180939,0.00073259,0.017
 31123,-0.02379152,-0.05396716,-0.09630533,0.01581833,0.12121904,0.0031
 9693,0.00358285,-0.00142889,-0.00810001,0.00665774,-0.00777361,-0.0435
 0067,-0.01603192,0.01697847,-0.00276065,-0.03178314,0.00777856,0.00185
 999,-0.00093874,-0.00320013,-0.00195877,0.00045317,0.00098564,0.053512
 70,0.00071206,0.00039160,-0.00001406,-0.00179088,-0.00095425,-0.001765
 76,-0.02083646,-0.31844863,0.06957654,-0.00309615,-0.00767634,0.002564
 36,0.00068892,-0.00119233,-0.00163013,-0.00027027,0.00197634,0.0002534
 8,0.02336703,0.33906503,0.00832860,0.00442574,-0.00005450,-0.01776359,
 0.00785470,-0.01483246,0.03175725,0.07350111,-0.05440490,-0.01234144,0
 .00668040,0.00448573,0.00177051,-0.00501506,-0.00445856,0.00021511,0.0
 0386546,-0.00049227,-0.01227321,-0.07471479,0.05699853,0.00567885,0.00
 051240,-0.00118643,-0.00730080,-0.00616675,-0.01309697,-0.12197274,0.0
 9913737,0.09500968,-0.02465059,0.01822045,0.01771178,0.00162784,-0.006
 77686,0.00341941,-0.00034921,0.00144324,0.00014299,0.00179456,-0.00234
 522,-0.00276893,0.14559423,-0.00110191,-0.00159870,-0.00119429,0.00414
 695,-0.00046400,0.00147151,0.09758503,-0.16866884,-0.09419818,-0.00606
 957,0.00988788,0.00622536,-0.00350361,0.00165919,0.00027909,-0.0007539
 7,-0.00212487,0.00030037,0.01423438,-0.01144513,-0.01573414,-0.1039833
 8,0.16995477,0.01028026,0.00252275,-0.00076580,-0.01468877,-0.01259531
 ,-0.02201085,0.11152127,-0.08855312,-0.11143678,-0.00826504,-0.0075100
 2,0.00156375,0.00597975,-0.00473314,0.00255377,-0.00044416,0.00417070,
 0.00010128,-0.00610658,0.00499491,0.00581589,-0.09665043,0.10141045,0.
 12453584,0.00145676,-0.00023959,0.00091043,-0.00110438,-0.00169349,-0.
 00035504,-0.00090554,-0.03077785,0.00518755,-0.05423292,-0.02100979,0.
 00696353,0.00076609,0.02642900,0.00154208,-0.00261045,0.00218649,0.002
 63472,-0.00348210,-0.00076243,0.00290178,-0.00039405,0.00037034,-0.001
 55246,0.06123096,-0.00033537,-0.00028905,0.00023782,0.00087254,-0.0010
 5047,0.00102542,-0.00159301,-0.01036546,0.00134605,-0.02074714,-0.3294
 8582,0.00958013,-0.00141818,-0.01432489,0.00108047,0.00169010,0.001059
 36,-0.00080081,-0.00165515,0.00114042,0.00036081,-0.00003568,0.0012359
 4,-0.00011000,0.02242576,0.34980706,-0.00006062,-0.00028550,0.00043763
 ,0.00116844,-0.00042552,0.00120967,-0.00031403,0.01004666,0.00278371,0
 .01089887,0.01352342,-0.03926980,0.00159352,-0.01213904,0.00373171,0.0
 0266558,-0.00106646,0.00190465,0.00462249,0.00190482,0.00520973,-0.003
 02517,0.00091002,-0.00258595,-0.01645035,-0.01183744,0.02907053,-0.000
 30035,0.00006069,-0.00015169,0.00105516,0.00010140,0.00101054,-0.00113
 995,0.00318218,0.00253948,-0.01781130,-0.01415499,0.00886569,-0.195174
 45,-0.12359542,0.07403697,0.00361558,0.00310819,-0.00032841,0.00005284
 ,-0.00004169,0.00000745,-0.00102584,-0.00041909,0.00026635,0.00009970,
 0.00005624,-0.00130392,0.20935811,0.00075456,0.00008198,0.00015590,-0.
 00136267,-0.00026519,-0.00100678,0.00314462,-0.00080930,-0.00059719,0.
 01292739,0.00946871,-0.00550283,-0.12131596,-0.15558570,0.05619571,-0.
 02247823,-0.01956040,0.01071350,0.00007613,-0.00005061,-0.00017081,0.0
 0045044,0.00014048,-0.00031289,0.00077667,0.00117572,-0.00031457,0.126
 04714,0.16975379,0.00062648,0.00020188,0.00017273,-0.00063574,-0.00013
 148,-0.00069509,0.00279631,-0.00109015,0.00294953,0.00829996,0.0063018
 5,-0.00024265,0.07417051,0.05627695,-0.06952042,0.00019195,0.00002359,
 0.00330978,-0.00034250,-0.00002221,-0.00006230,0.00006805,0.00004779,-
 0.00000942,-0.00110932,-0.00000705,-0.00179427,-0.08492656,-0.05917810
 ,0.06310792,-0.04312713,-0.00999442,0.02415964,-0.01622735,-0.03691234
 ,0.00127644,0.01253463,0.00294907,0.00614629,-0.00699135,-0.00080356,0
 .00266636,0.00257251,-0.00414992,-0.00103062,-0.00005578,0.00356262,0.
 00000667,0.00011331,0.00045638,-0.00033901,-0.00083214,-0.00031814,-0.
 00088142,-0.00048043,0.00001527,-0.00044191,0.00004824,-0.00009636,-0.
 00005967,0.05082775,-0.04008108,-0.31300829,0.05581130,0.00097839,-0.0
 3960981,0.00068362,0.00310168,-0.00126495,0.00307595,-0.00233687,-0.00
 128327,-0.00078612,0.00173296,0.00235750,-0.00046682,-0.00140027,-0.00
 540178,0.00094461,-0.00088844,0.00095750,-0.00139593,-0.00000480,0.000
 19349,-0.00033116,0.00015095,0.00028856,-0.00070049,-0.00014328,0.0001
 0740,-0.00002502,0.02064620,0.40292705,0.04446215,0.07673888,-0.058579
 21,-0.02288984,0.00368032,0.00087198,0.00343422,0.00121761,0.00166663,
 -0.00068924,0.00050567,0.00140793,-0.00000871,-0.00209553,-0.00002998,
 0.00032554,0.00305957,-0.00019281,0.00084118,0.00006275,0.00024661,0.0
 0009555,-0.00000366,-0.00002982,-0.00042995,-0.00012165,-0.00024801,0.
 00004536,-0.00005419,-0.00002866,-0.03131258,-0.05186549,0.04541697,-0
 .13714028,0.06299120,0.11470091,-0.04354631,0.02270829,0.02372251,0.01
 160492,0.00305417,0.00768297,-0.00643800,-0.00146165,0.00173259,0.0023
 4653,-0.00248462,-0.00211982,-0.00011359,0.00088236,0.00025971,-0.0005
 8113,0.00021954,-0.00088650,0.00017981,-0.00042162,-0.00155017,0.00002
 074,0.00004785,0.00028958,-0.00000142,-0.00005953,-0.00006756,0.001648
 28,0.02274830,-0.00002860,0.17310255,0.07490872,-0.11446771,-0.0736964
 3,0.00168945,-0.00109556,-0.00048994,0.00413593,0.00062542,0.00044736,
 -0.00261709,0.00086141,0.00169389,0.00060503,-0.00254390,-0.00027505,-
 0.00029712,0.00245571,0.00012296,-0.00055346,-0.00015400,-0.00014518,0
 .00012738,0.00041442,0.00071311,0.00002826,-0.00001718,0.00009935,0.00
 002261,-0.00000849,-0.00000846,0.03059627,-0.05278910,-0.03481594,-0.1
 0410585,0.16084061,0.15525344,-0.07251099,-0.16202834,-0.00829319,-0.0
 2559739,-0.01225391,0.00449277,0.00051708,0.00075482,-0.00130103,0.001
 58743,0.00237197,-0.00002951,-0.00369695,-0.00012580,0.00007876,0.0046
 2477,0.00012835,0.00021156,-0.00006651,0.00004872,0.00055523,0.0009744
 0,0.00094321,-0.00019559,-0.00009843,-0.00004720,0.00003258,-0.0000272
 3,-0.00003989,-0.00514429,-0.01409882,0.00759279,-0.15325070,0.1065851
 6,0.16441950,-0.01582659,-0.03833457,0.00849845,-0.03422340,0.00608334
 ,0.02474219,-0.02460939,0.00554818,-0.01818592,0.01669469,0.00475767,-
 0.00750298,-0.00498528,0.00671833,0.00244036,0.00135283,-0.00436683,-0
 .00055755,-0.00074561,0.00005191,-0.00059228,0.00138609,-0.00029401,0.
 00220581,0.00009698,0.00041239,0.00026581,-0.00014620,0.00016988,0.000
 11134,-0.00181647,-0.00359158,0.00597743,0.00243857,-0.00196372,-0.002
 72965,0.06037579,-0.00312172,-0.04477009,0.00463131,-0.01583227,-0.262
 48752,0.06007510,0.00699665,-0.00905071,0.00771952,-0.00568792,-0.0012
 9905,0.00169811,0.00142092,-0.00172401,-0.00109190,-0.00130986,0.00179
 692,0.00053793,0.00108694,0.00066756,0.00198399,-0.00096373,0.00054267
 ,0.00040846,0.00116949,0.00093509,0.00041561,0.00019799,-0.00008014,-0
 .00003851,-0.00312457,-0.00408479,0.00686388,-0.00221834,0.00574305,0.
 00560602,-0.00288958,0.36526591,-0.02650681,0.00489844,0.00025101,0.04
 227530,0.07765085,-0.06763483,-0.02260301,0.01278997,-0.01635027,0.015
 33858,0.00359084,-0.00507800,-0.00495941,0.00635053,0.00232505,0.00130
 243,-0.00439073,-0.00067013,-0.00234889,-0.00010931,-0.00179837,0.0019
 0163,0.00019781,0.00361772,-0.00024934,-0.00026859,-0.00012017,-0.0002
 3349,0.00017757,0.00011388,0.00566651,0.00402497,0.00313506,0.00156810
 ,-0.00030394,-0.00085046,-0.01075261,-0.07335181,0.07273603,-0.0463404
 8,0.01992070,0.03283562,-0.10348239,0.05393087,0.10349132,-0.01696826,
 -0.00674264,-0.01325162,0.01283832,0.00248333,-0.00681234,-0.00419389,
 0.00483792,0.00153349,0.00204022,-0.00278130,-0.00097328,0.00085914,-0
 .00001349,0.00200348,0.00014921,-0.00063218,0.00037850,0.00004927,-0.0
 0011109,-0.00016825,-0.00000390,0.00008946,0.00012374,0.00192616,-0.00
 072765,-0.00004691,-0.00300953,-0.00315176,0.00941363,0.00031976,0.023
 11814,0.00025228,0.15641658,0.00671040,0.00085441,0.00023648,0.0598387
 8,-0.11107640,-0.06487571,-0.00608644,-0.00227613,-0.01010407,0.006101
 21,0.00074066,-0.00321354,-0.00071718,0.00198138,0.00069985,-0.0009305
 5,-0.00261249,0.00057897,-0.00018990,0.00046418,-0.00058117,-0.0000791
 2,0.00032031,-0.00015771,0.00021402,0.00014294,0.00014622,-0.00012970,
 0.00010966,0.00005615,-0.00196816,0.00608336,-0.00119112,-0.00296318,0
 .00114283,-0.00108690,0.02817214,-0.05100621,-0.03127061,-0.08872597,0
 .15366491,-0.00634954,-0.02589258,-0.01459264,0.13310476,-0.06434283,-
 0.16139810,-0.01426242,-0.01667205,-0.02768895,0.01833372,0.00249345,-
 0.00649567,-0.00412293,0.00618809,0.00263304,0.00047382,-0.00492432,0.
 00001039,0.00168022,0.00050587,0.00239668,-0.00189906,-0.00026903,-0.0
 0218947,0.00006424,-0.00016921,-0.00026403,-0.00039893,0.00021376,0.00
 005997,-0.00071965,0.00536430,-0.00116957,0.00779868,0.00031532,-0.000
 51336,-0.00411959,-0.01508177,0.00987044,-0.12884773,0.11082263,0.1993
 1517,0.00100996,0.00156381,-0.00488097,-0.00145462,-0.00146427,0.00361
 430,-0.00093971,0.00031636,-0.00052539,0.00619185,-0.00041195,-0.00010
 549,-0.02300587,0.01445386,0.01262588,-0.12445550,0.04484815,0.0464066
 9,0.00022145,0.00002334,0.00005109,-0.00013689,0.00002666,-0.00008858,
 -0.00063736,0.00037013,0.00032999,-0.00084995,0.00048269,-0.00118144,0
 .00023170,-0.00211396,0.00104809,-0.00086697,0.00109293,0.00215408,0.0
 0003004,0.00111787,-0.00052484,0.00072323,-0.00046675,-0.00100921,0.17
 717091,0.00021038,-0.00114423,0.00272239,-0.00009810,0.00016957,-0.002
 40346,0.00149232,-0.00045914,0.00050423,-0.00375377,-0.00025430,0.0016
 0001,0.03289321,-0.01400884,-0.01441153,0.03305345,-0.05008670,-0.0143
 1463,0.00020650,-0.00016653,-0.00019828,0.00016238,0.00028152,-0.00024
 682,0.00072209,-0.00050997,-0.00030302,0.00314170,-0.00020269,-0.00153
 522,-0.00028073,0.00146660,-0.00068227,0.00035085,-0.00048740,-0.00109
 456,0.00008444,-0.00031969,0.00026234,-0.00032108,0.00045300,0.0006064
 0,-0.05047252,0.06169895,-0.00051950,-0.00078240,0.00215837,0.00073671
 ,0.00076765,-0.00139573,0.00020832,-0.00027707,-0.00017308,-0.00002474
 ,0.00005083,0.00508385,0.01151117,-0.00544250,-0.00038303,0.04695643,-
 0.01991120,-0.03979355,0.00013348,0.00011883,0.00045615,-0.00029631,0.
 00006632,-0.00045021,0.00026435,-0.00019564,0.00006649,-0.00110792,-0.
 00030926,-0.00277496,-0.00003851,0.00093572,-0.00047664,0.00049469,-0.
 00049263,-0.00096986,-0.00002249,-0.00048210,0.00021714,-0.00027045,0.
 00014549,0.00034846,-0.07517214,0.02157739,0.04233916,-0.00070321,-0.0
 0197891,0.00338039,0.00298994,0.00016122,-0.00188309,-0.00291006,0.000
 06835,0.00220184,-0.00166600,0.00221907,-0.00103617,-0.00061514,-0.008
 97848,0.00242345,-0.07235830,-0.06323464,0.02489832,-0.00048198,0.0036
 3740,-0.00007031,0.00025169,0.00113411,-0.00040434,0.00012674,0.000005
 33,-0.00007003,0.00222374,0.00039378,0.00193446,-0.00037191,0.00192945
 ,-0.00082369,0.00035584,-0.00051758,-0.00124808,-0.00034183,0.00003996
 ,-0.00012642,-0.00132344,0.00122039,0.00027363,-0.03323225,-0.01739114
 ,0.01714693,0.10805618,-0.00240050,-0.00391171,0.00460861,0.00579996,0
 .00057419,-0.00125533,0.00158986,-0.00171660,-0.00266672,-0.00343292,0
 .00515580,0.00056162,-0.02748062,-0.02976908,0.01353212,-0.04965841,-0
 .12052910,0.02531088,0.00237602,-0.00457481,-0.00071684,0.00030188,-0.
 00032912,0.00032982,0.00001005,0.00025776,0.00002592,0.00256603,-0.004
 27523,-0.00087200,-0.00057762,0.00306054,-0.00129884,0.00071221,-0.000
 52012,-0.00161709,-0.00055799,-0.00012898,-0.00024833,-0.00117327,0.00
 101360,0.00084198,-0.00936637,0.00356985,0.00423054,0.08129169,0.15212
 301,0.00103904,0.00137208,-0.00165879,-0.00204277,-0.00050291,0.000552
 43,0.00143739,0.00015015,-0.00058029,-0.00028128,-0.00092999,-0.002309
 37,0.00313789,0.00498836,0.00327218,0.02400801,0.03093763,-0.03357832,
 0.00024221,-0.00165879,0.00044531,0.00001898,-0.00048381,0.00034684,-0
 .00012661,-0.00002189,-0.00008468,0.00164649,0.00001741,0.00545384,0.0
 0004576,-0.00117060,0.00041672,-0.00034638,0.00025043,0.00056945,0.000
 22167,0.00010617,0.00023590,0.00033854,-0.00020495,-0.00032235,0.01725
 793,0.00791703,-0.00425257,-0.04659688,-0.04076633,0.03149368\\-0.0000
 0339,0.00000189,-0.00001222,-0.00000083,0.00000269,0.00000351,0.000004
 60,0.00001262,0.00000567,-0.00000810,0.00000265,-0.00000500,0.00001468
 ,-0.00001316,0.00000058,-0.00000218,0.00000409,0.00000853,-0.00000234,
 0.00000105,-0.00000589,-0.00000173,-0.00000563,0.00000502,-0.00000279,
 0.00000038,-0.00000021,-0.00000465,0.00000528,-0.00000249,0.00000184,-
 0.00000020,0.00000373,0.00000163,-0.00000170,0.00000322,0.00000065,-0.
 00000043,0.00000004,0.00000184,-0.00000235,0.00000104,0.00000775,0.000
 00039,-0.00000169,-0.00000698,-0.00000758,-0.00000384\\\@


 ALMOST ANYTHING IS EASIER TO GET INTO THAN OUT OF.

                         -- AGNES ALLEN'S LAW FROM
                PAUL DICKSON'S "THE OFFICIAL RULES"
 Job cpu time:       0 days  1 hours 27 minutes 32.6 seconds.
 Elapsed time:       0 days  0 hours  7 minutes 20.6 seconds.
 File lengths (MBytes):  RWF=    341 Int=      0 D2E=      0 Chk=     12 Scr=      1
 Normal termination of Gaussian 16 at Mon Mar 13 20:43:35 2023.
