 Entering Gaussian System, Link 0=g16
 Input=TScc-pos.gjf
 Output=TScc-pos.log
 Initial command:
 /home/zhouoh/g16/l1.exe "/home/zhouoh/g16/scratch/Gau-11061.inp" -scrdir="/home/zhouoh/g16/scratch/"
 Entering Link 1 = /home/zhouoh/g16/l1.exe PID=     11063.
  
 Copyright (c) 1988,1990,1992,1993,1995,1998,2003,2009,2016,
            Gaussian, Inc.  All Rights Reserved.
  
 This is part of the Gaussian(R) 16 program.  It is based on
 the Gaussian(R) 09 system (copyright 2009, Gaussian, Inc.),
 the Gaussian(R) 03 system (copyright 2003, Gaussian, Inc.),
 the Gaussian(R) 98 system (copyright 1998, Gaussian, Inc.),
 the Gaussian(R) 94 system (copyright 1995, Gaussian, Inc.),
 the Gaussian 92(TM) system (copyright 1992, Gaussian, Inc.),
 the Gaussian 90(TM) system (copyright 1990, Gaussian, Inc.),
 the Gaussian 88(TM) system (copyright 1988, Gaussian, Inc.),
 the Gaussian 86(TM) system (copyright 1986, Carnegie Mellon
 University), and the Gaussian 82(TM) system (copyright 1983,
 Carnegie Mellon University). Gaussian is a federally registered
 trademark of Gaussian, Inc.
  
 This software contains proprietary and confidential information,
 including trade secrets, belonging to Gaussian, Inc.
  
 This software is provided under written license and may be
 used, copied, transmitted, or stored only in accord with that
 written license.
  
 The following legend is applicable only to US Government
 contracts under FAR:
  
                    RESTRICTED RIGHTS LEGEND
  
 Use, reproduction and disclosure by the US Government is
 subject to restrictions as set forth in subparagraphs (a)
 and (c) of the Commercial Computer Software - Restricted
 Rights clause in FAR 52.227-19.
  
 Gaussian, Inc.
 340 Quinnipiac St., Bldg. 40, Wallingford CT 06492
  
  
 ---------------------------------------------------------------
 Warning -- This program may not be used in any manner that
 competes with the business of Gaussian, Inc. or will provide
 assistance to any competitor of Gaussian, Inc.  The licensee
 of this program is prohibited from giving any competitor of
 Gaussian, Inc. access to this program.  By using this program,
 the user acknowledges that Gaussian, Inc. is engaged in the
 business of creating and licensing software in the field of
 computational chemistry and represents and warrants to the
 licensee that it is not a competitor of Gaussian, Inc. and that
 it will not use this program in any manner prohibited above.
 ---------------------------------------------------------------
  

 Cite this work as:
 Gaussian 16, Revision A.03,
 M. J. Frisch, G. W. Trucks, H. B. Schlegel, G. E. Scuseria, 
 M. A. Robb, J. R. Cheeseman, G. Scalmani, V. Barone, 
 G. A. Petersson, H. Nakatsuji, X. Li, M. Caricato, A. V. Marenich, 
 J. Bloino, B. G. Janesko, R. Gomperts, B. Mennucci, H. P. Hratchian, 
 J. V. Ortiz, A. F. Izmaylov, J. L. Sonnenberg, D. Williams-Young, 
 F. Ding, F. Lipparini, F. Egidi, J. Goings, B. Peng, A. Petrone, 
 T. Henderson, D. Ranasinghe, V. G. Zakrzewski, J. Gao, N. Rega, 
 G. Zheng, W. Liang, M. Hada, M. Ehara, K. Toyota, R. Fukuda, 
 J. Hasegawa, M. Ishida, T. Nakajima, Y. Honda, O. Kitao, H. Nakai, 
 T. Vreven, K. Throssell, J. A. Montgomery, Jr., J. E. Peralta, 
 F. Ogliaro, M. J. Bearpark, J. J. Heyd, E. N. Brothers, K. N. Kudin, 
 V. N. Staroverov, T. A. Keith, R. Kobayashi, J. Normand, 
 K. Raghavachari, A. P. Rendell, J. C. Burant, S. S. Iyengar, 
 J. Tomasi, M. Cossi, J. M. Millam, M. Klene, C. Adamo, R. Cammi, 
 J. W. Ochterski, R. L. Martin, K. Morokuma, O. Farkas, 
 J. B. Foresman, and D. J. Fox, Gaussian, Inc., Wallingford CT, 2016.
 
 ******************************************
 Gaussian 16:  ES64L-G16RevA.03 25-Dec-2016
                12-Feb-2023 
 ******************************************
 %nproc=12
 Will use up to   12 processors via shared memory.
 %mem=12GB
 %chk=TScc-pos.chk
 ----------------------------------------------------------------------
 #p uwb97xd/6-31g* guess=read opt=(readfc,ts,noeigen,loose) freq scrf=(
 smd,solvent=dmso)
 ----------------------------------------------------------------------
 1/5=1,7=-1,10=3,11=1,18=20,26=3,38=1/1,3;
 2/9=110,12=2,17=6,18=5,40=1/2;
 3/5=1,6=6,7=1,11=2,25=1,30=1,70=32201,71=1,72=21,74=-58,116=2/1,2,3;
 4/5=1/1;
 5/5=2,38=6,53=21/2;
 6/7=2,8=2,9=2,10=2,28=1/1;
 7//1,2,3,16;
 1/5=1,7=-1,11=1,18=20,26=3/3(2);
 2/9=110/2;
 99//99;
 2/9=110/2;
 3/5=1,6=6,7=1,11=2,25=1,30=1,70=32205,71=1,72=21,74=-58,116=2/1,2,3;
 4/5=5,16=3,69=1/1;
 5/5=2,38=5,53=21/2;
 7//1,2,3,16;
 1/5=1,7=-1,11=1,18=20,26=3/3(-5);
 2/9=110/2;
 6/7=2,8=2,9=2,10=2,19=2,28=1/1;
 99/9=1/99;
 Leave Link    1 at Sun Feb 12 18:25:36 2023, MaxMem=  1610612736 cpu:               0.2 elap:               0.0
 (Enter /home/zhouoh/g16/l101.exe)
 -
 t
 -
 Symbolic Z-matrix:
 Charge = -1 Multiplicity = 1
 C                     0.89987   0.66305  -0.31243 
 O                     2.94525   0.03845  -1.018 
 O                     1.00823   1.19674  -1.52794 
 O                     1.37568   1.51939   0.78317 
 C                    -0.55752   0.30258   0.0569 
 C                    -0.94725   0.05929   1.39358 
 C                    -1.50565   0.20814  -0.93234 
 C                    -2.2694   -0.29504   1.72329 
 H                    -0.20666   0.16398   2.18005 
 C                    -2.88059  -0.14933  -0.64638 
 H                    -1.21953   0.41092  -1.95989 
 C                    -3.22383  -0.40416   0.74101 
 H                    -2.52936  -0.47647   2.76258 
 O                    -3.74127  -0.236    -1.55413 
 C                     0.89391   2.82904   0.69 
 H                    -0.19098   2.89878   0.88926 
 H                     1.41399   3.42737   1.44675 
 H                     1.08137   3.25575  -0.30307 
 H                    -4.25107  -0.67445   0.9673 
 C                     1.88794  -0.51737  -0.33384 
 C                     2.27235  -1.24337   0.989 
 C                     1.31484  -1.8701   -0.8507 
 C                     1.33238  -2.40561   0.59797 
 H                     2.07784  -0.69894   1.91741 
 H                     3.32518  -1.54746   0.9662 
 H                     0.35825  -1.86025  -1.38439 
 H                     2.06883  -2.36371  -1.47372 
 H                     0.3539   -2.32631   1.0822 
 H                     1.71297  -3.42069   0.74816 
 
 ITRead=  0  0  0  0  0  0  0  0  0  0  0  0  0  0  0  0  0  0  0  0
 ITRead=  0  0  0  0  0  0  0  0  0
 MicOpt= -1 -1 -1 -1 -1 -1 -1 -1 -1 -1 -1 -1 -1 -1 -1 -1 -1 -1 -1 -1
 MicOpt= -1 -1 -1 -1 -1 -1 -1 -1 -1
 NAtoms=     29 NQM=       29 NQMF=       0 NMMI=      0 NMMIF=      0
                NMic=       0 NMicF=      0.
                    Isotopes and Nuclear Properties:
 (Nuclear quadrupole moments (NQMom) in fm**2, nuclear magnetic moments (NMagM)
  in nuclear magnetons)

  Atom         1           2           3           4           5           6           7           8           9          10
 IAtWgt=          12          16          16          16          12          12          12          12           1          12
 AtmWgt=  12.0000000  15.9949146  15.9949146  15.9949146  12.0000000  12.0000000  12.0000000  12.0000000   1.0078250  12.0000000
 NucSpn=           0           0           0           0           0           0           0           0           1           0
 AtZEff=  -0.0000000  -0.0000000  -0.0000000  -0.0000000  -0.0000000  -0.0000000  -0.0000000  -0.0000000  -0.0000000  -0.0000000
 NQMom=    0.0000000   0.0000000   0.0000000   0.0000000   0.0000000   0.0000000   0.0000000   0.0000000   0.0000000   0.0000000
 NMagM=    0.0000000   0.0000000   0.0000000   0.0000000   0.0000000   0.0000000   0.0000000   0.0000000   2.7928460   0.0000000
 AtZNuc=   6.0000000   8.0000000   8.0000000   8.0000000   6.0000000   6.0000000   6.0000000   6.0000000   1.0000000   6.0000000

  Atom        11          12          13          14          15          16          17          18          19          20
 IAtWgt=           1          12           1          16          12           1           1           1           1          12
 AtmWgt=   1.0078250  12.0000000   1.0078250  15.9949146  12.0000000   1.0078250   1.0078250   1.0078250   1.0078250  12.0000000
 NucSpn=           1           0           1           0           0           1           1           1           1           0
 AtZEff=  -0.0000000  -0.0000000  -0.0000000  -0.0000000  -0.0000000  -0.0000000  -0.0000000  -0.0000000  -0.0000000  -0.0000000
 NQMom=    0.0000000   0.0000000   0.0000000   0.0000000   0.0000000   0.0000000   0.0000000   0.0000000   0.0000000   0.0000000
 NMagM=    2.7928460   0.0000000   2.7928460   0.0000000   0.0000000   2.7928460   2.7928460   2.7928460   2.7928460   0.0000000
 AtZNuc=   1.0000000   6.0000000   1.0000000   8.0000000   6.0000000   1.0000000   1.0000000   1.0000000   1.0000000   6.0000000

  Atom        21          22          23          24          25          26          27          28          29
 IAtWgt=          12          12          12           1           1           1           1           1           1
 AtmWgt=  12.0000000  12.0000000  12.0000000   1.0078250   1.0078250   1.0078250   1.0078250   1.0078250   1.0078250
 NucSpn=           0           0           0           1           1           1           1           1           1
 AtZEff=  -0.0000000  -0.0000000  -0.0000000  -0.0000000  -0.0000000  -0.0000000  -0.0000000  -0.0000000  -0.0000000
 NQMom=    0.0000000   0.0000000   0.0000000   0.0000000   0.0000000   0.0000000   0.0000000   0.0000000   0.0000000
 NMagM=    0.0000000   0.0000000   0.0000000   2.7928460   2.7928460   2.7928460   2.7928460   2.7928460   2.7928460
 AtZNuc=   6.0000000   6.0000000   6.0000000   1.0000000   1.0000000   1.0000000   1.0000000   1.0000000   1.0000000
 Leave Link  101 at Sun Feb 12 18:25:36 2023, MaxMem=  1610612736 cpu:               1.5 elap:               0.1
 (Enter /home/zhouoh/g16/l103.exe)

 GradGradGradGradGradGradGradGradGradGradGradGradGradGradGradGradGradGrad
 Berny optimization.
 Initialization pass.
 No redundant coordinates on chk file, so ReadFC converted to ReadCartesianFC.
 Cartesian force constants read from checkpoint file:
 "TScc-pos.chk"
 FormGI is forming the generalized inverse of G from B-inverse, IUseBI=4.
                           ----------------------------
                           !    Initial Parameters    !
                           ! (Angstroms and Degrees)  !
 --------------------------                            --------------------------
 ! Name  Definition              Value          Derivative Info.                !
 --------------------------------------------------------------------------------
 ! R1    R(1,3)                  1.3319         D2E/DX2 =    0.4645             !
 ! R2    R(1,4)                  1.4697         D2E/DX2 =    0.2329             !
 ! R3    R(1,5)                  1.5461         D2E/DX2 =    0.2437             !
 ! R4    R(1,20)                 1.5395         D2E/DX2 =    0.2635             !
 ! R5    R(2,20)                 1.3766         D2E/DX2 =    0.3697             !
 ! R6    R(4,15)                 1.3986         D2E/DX2 =    0.3704             !
 ! R7    R(5,6)                  1.4134         D2E/DX2 =    0.3394             !
 ! R8    R(5,7)                  1.3735         D2E/DX2 =    0.4307             !
 ! R9    R(6,8)                  1.408          D2E/DX2 =    0.3553             !
 ! R10   R(6,9)                  1.0853         D2E/DX2 =    0.3709             !
 ! R11   R(7,10)                 1.4491         D2E/DX2 =    0.3054             !
 ! R12   R(7,11)                 1.0857         D2E/DX2 =    0.3703             !
 ! R13   R(8,12)                 1.3739         D2E/DX2 =    0.4361             !
 ! R14   R(8,13)                 1.0866         D2E/DX2 =    0.3659             !
 ! R15   R(10,12)                1.4518         D2E/DX2 =    0.3012             !
 ! R16   R(10,14)                1.2539         D2E/DX2 =    0.6522             !
 ! R17   R(12,19)                1.086          D2E/DX2 =    0.3684             !
 ! R18   R(15,16)                1.1052         D2E/DX2 =    0.3177             !
 ! R19   R(15,17)                1.096          D2E/DX2 =    0.3418             !
 ! R20   R(15,18)                1.097          D2E/DX2 =    0.3391             !
 ! R21   R(20,21)                1.5572         D2E/DX2 =    0.18               !
 ! R22   R(20,22)                1.5574         D2E/DX2 =    0.1794             !
 ! R23   R(21,23)                1.5451         D2E/DX2 =    0.2032             !
 ! R24   R(21,24)                1.0937         D2E/DX2 =    0.3472             !
 ! R25   R(21,25)                1.0961         D2E/DX2 =    0.3399             !
 ! R26   R(22,23)                1.5446         D2E/DX2 =    0.2037             !
 ! R27   R(22,26)                1.0954         D2E/DX2 =    0.3424             !
 ! R28   R(22,27)                1.0956         D2E/DX2 =    0.3412             !
 ! R29   R(23,28)                1.0946         D2E/DX2 =    0.3441             !
 ! R30   R(23,29)                1.0944         D2E/DX2 =    0.3424             !
 ! A1    A(3,1,4)              114.8656         D2E/DX2 =    0.046              !
 ! A2    A(3,1,5)              112.8376         D2E/DX2 =    0.0597             !
 ! A3    A(3,1,20)             104.0232         D2E/DX2 =    0.0613             !
 ! A4    A(4,1,5)              105.2451         D2E/DX2 =    0.085              !
 ! A5    A(4,1,20)             104.4382         D2E/DX2 =    0.0955             !
 ! A6    A(5,1,20)             115.4386         D2E/DX2 =    0.1294             !
 ! A7    A(1,4,15)             112.609          D2E/DX2 =    0.3098             !
 ! A8    A(1,5,6)              121.7328         D2E/DX2 =    0.1274             !
 ! A9    A(1,5,7)              119.6491         D2E/DX2 =    0.1242             !
 ! A10   A(6,5,7)              118.6176         D2E/DX2 =    0.0804             !
 ! A11   A(5,6,8)              121.5812         D2E/DX2 =    0.0804             !
 ! A12   A(5,6,9)              118.7204         D2E/DX2 =    0.082              !
 ! A13   A(8,6,9)              119.6927         D2E/DX2 =    0.0828             !
 ! A14   A(5,7,10)             121.9914         D2E/DX2 =    0.0828             !
 ! A15   A(5,7,11)             119.1359         D2E/DX2 =    0.072              !
 ! A16   A(10,7,11)            118.8722         D2E/DX2 =    0.0711             !
 ! A17   A(6,8,12)             120.324          D2E/DX2 =    0.0781             !
 ! A18   A(6,8,13)             119.3853         D2E/DX2 =    0.0821             !
 ! A19   A(12,8,13)            120.29           D2E/DX2 =    0.0813             !
 ! A20   A(7,10,12)            117.1428         D2E/DX2 =    0.0851             !
 ! A21   A(7,10,14)            121.6983         D2E/DX2 =    0.1399             !
 ! A22   A(12,10,14)           121.159          D2E/DX2 =    0.1403             !
 ! A23   A(8,12,10)            120.3351         D2E/DX2 =    0.082              !
 ! A24   A(8,12,19)            121.8602         D2E/DX2 =    0.0787             !
 ! A25   A(10,12,19)           117.8037         D2E/DX2 =    0.078              !
 ! A26   A(4,15,16)            112.6568         D2E/DX2 =    0.145              !
 ! A27   A(4,15,17)            107.5642         D2E/DX2 =    0.1388             !
 ! A28   A(4,15,18)            111.45           D2E/DX2 =    0.1306             !
 ! A29   A(16,15,17)           107.8704         D2E/DX2 =    0.074              !
 ! A30   A(16,15,18)           107.8423         D2E/DX2 =    0.0762             !
 ! A31   A(17,15,18)           109.367          D2E/DX2 =    0.07               !
 ! A32   A(1,20,2)             100.9689         D2E/DX2 =    0.0353             !
 ! A33   A(1,20,21)            120.272          D2E/DX2 =    0.0321             !
 ! A34   A(1,20,22)            115.7487         D2E/DX2 =    0.0359             !
 ! A35   A(2,20,21)            114.8888         D2E/DX2 =    0.014              !
 ! A36   A(2,20,22)            117.9314         D2E/DX2 =    0.0214             !
 ! A37   A(21,20,22)            88.1555         D2E/DX2 =    0.0391             !
 ! A38   A(20,21,23)            89.1708         D2E/DX2 =    0.0463             !
 ! A39   A(20,21,24)           116.4328         D2E/DX2 =    0.0223             !
 ! A40   A(20,21,25)           110.4138         D2E/DX2 =    0.0186             !
 ! A41   A(23,21,24)           118.7565         D2E/DX2 =    0.0216             !
 ! A42   A(23,21,25)           111.7401         D2E/DX2 =    0.0212             !
 ! A43   A(24,21,25)           109.0609         D2E/DX2 =    0.018              !
 ! A44   A(20,22,23)            89.1804         D2E/DX2 =    0.0472             !
 ! A45   A(20,22,26)           118.3735         D2E/DX2 =    0.0223             !
 ! A46   A(20,22,27)           109.075          D2E/DX2 =    0.0185             !
 ! A47   A(23,22,26)           118.0329         D2E/DX2 =    0.0219             !
 ! A48   A(23,22,27)           111.6748         D2E/DX2 =    0.0209             !
 ! A49   A(26,22,27)           109.1462         D2E/DX2 =    0.018              !
 ! A50   A(21,23,22)            89.0534         D2E/DX2 =    0.0528             !
 ! A51   A(21,23,28)           112.1705         D2E/DX2 =    0.0209             !
 ! A52   A(21,23,29)           116.8328         D2E/DX2 =    0.0229             !
 ! A53   A(22,23,28)           112.3113         D2E/DX2 =    0.0207             !
 ! A54   A(22,23,29)           117.0148         D2E/DX2 =    0.0229             !
 ! A55   A(28,23,29)           108.5022         D2E/DX2 =    0.0191             !
 ! D1    D(3,1,4,15)            47.1483         D2E/DX2 =    0.0306             !
 ! D2    D(5,1,4,15)           -77.5802         D2E/DX2 =    0.039              !
 ! D3    D(20,1,4,15)          160.421          D2E/DX2 =    0.0332             !
 ! D4    D(3,1,5,6)           -163.181          D2E/DX2 =    0.0219             !
 ! D5    D(3,1,5,7)             17.0907         D2E/DX2 =    0.0213             !
 ! D6    D(4,1,5,6)            -37.1888         D2E/DX2 =    0.0234             !
 ! D7    D(4,1,5,7)            143.0829         D2E/DX2 =    0.0224             !
 ! D8    D(20,1,5,6)            77.3816         D2E/DX2 =    0.0179             !
 ! D9    D(20,1,5,7)          -102.3466         D2E/DX2 =    0.0164             !
 ! D10   D(3,1,20,2)            40.5289         D2E/DX2 =    0.0176             !
 ! D11   D(3,1,20,21)          168.0827         D2E/DX2 =    0.021              !
 ! D12   D(3,1,20,22)          -88.022          D2E/DX2 =    0.0205             !
 ! D13   D(4,1,20,2)           -80.258          D2E/DX2 =    0.0217             !
 ! D14   D(4,1,20,21)           47.2957         D2E/DX2 =    0.0217             !
 ! D15   D(4,1,20,22)          151.1911         D2E/DX2 =    0.0236             !
 ! D16   D(5,1,20,2)           164.7088         D2E/DX2 =    0.0176             !
 ! D17   D(5,1,20,21)          -67.7374         D2E/DX2 =    0.0193             !
 ! D18   D(5,1,20,22)           36.1579         D2E/DX2 =    0.02               !
 ! D19   D(1,4,15,16)           69.7606         D2E/DX2 =    0.0294             !
 ! D20   D(1,4,15,17)         -171.4943         D2E/DX2 =    0.0254             !
 ! D21   D(1,4,15,18)          -51.621          D2E/DX2 =    0.0271             !
 ! D22   D(1,5,6,8)           -178.7041         D2E/DX2 =    0.006              !
 ! D23   D(1,5,6,9)              2.1686         D2E/DX2 =    0.0069             !
 ! D24   D(7,5,6,8)              1.0269         D2E/DX2 =    0.0062             !
 ! D25   D(7,5,6,9)           -178.1004         D2E/DX2 =    0.0065             !
 ! D26   D(1,5,7,10)           178.8904         D2E/DX2 =    0.0061             !
 ! D27   D(1,5,7,11)            -1.3618         D2E/DX2 =    0.0078             !
 ! D28   D(6,5,7,10)            -0.8464         D2E/DX2 =    0.0062             !
 ! D29   D(6,5,7,11)           178.9015         D2E/DX2 =    0.007              !
 ! D30   D(5,6,8,12)            -0.4655         D2E/DX2 =    0.0078             !
 ! D31   D(5,6,8,13)           179.8479         D2E/DX2 =    0.0081             !
 ! D32   D(9,6,8,12)           178.6534         D2E/DX2 =    0.0075             !
 ! D33   D(9,6,8,13)            -1.0332         D2E/DX2 =    0.0089             !
 ! D34   D(5,7,10,12)            0.1322         D2E/DX2 =    0.0083             !
 ! D35   D(5,7,10,14)         -179.8866         D2E/DX2 =    0.0078             !
 ! D36   D(11,7,10,12)        -179.6163         D2E/DX2 =    0.0085             !
 ! D37   D(11,7,10,14)           0.365          D2E/DX2 =    0.0106             !
 ! D38   D(6,8,12,10)           -0.2819         D2E/DX2 =    0.008              !
 ! D39   D(6,8,12,19)         -179.915          D2E/DX2 =    0.0079             !
 ! D40   D(13,8,12,10)         179.4019         D2E/DX2 =    0.0084             !
 ! D41   D(13,8,12,19)          -0.2313         D2E/DX2 =    0.0094             !
 ! D42   D(7,10,12,8)            0.4458         D2E/DX2 =    0.0085             !
 ! D43   D(7,10,12,19)        -179.9064         D2E/DX2 =    0.008              !
 ! D44   D(14,10,12,8)        -179.5355         D2E/DX2 =    0.0077             !
 ! D45   D(14,10,12,19)          0.1122         D2E/DX2 =    0.0104             !
 ! D46   D(1,20,21,23)         103.1955         D2E/DX2 =    0.0238             !
 ! D47   D(1,20,21,24)         -18.8177         D2E/DX2 =    0.0164             !
 ! D48   D(1,20,21,25)        -143.8579         D2E/DX2 =    0.0192             !
 ! D49   D(2,20,21,23)        -135.8952         D2E/DX2 =    0.0192             !
 ! D50   D(2,20,21,24)         102.0915         D2E/DX2 =    0.0163             !
 ! D51   D(2,20,21,25)         -22.9486         D2E/DX2 =    0.0159             !
 ! D52   D(22,20,21,23)        -15.7828         D2E/DX2 =    0.0068             !
 ! D53   D(22,20,21,24)       -137.796          D2E/DX2 =    0.017              !
 ! D54   D(22,20,21,25)         97.1638         D2E/DX2 =    0.0168             !
 ! D55   D(1,20,22,23)        -107.1981         D2E/DX2 =    0.0242             !
 ! D56   D(1,20,22,26)          14.5695         D2E/DX2 =    0.0165             !
 ! D57   D(1,20,22,27)         140.103          D2E/DX2 =    0.0195             !
 ! D58   D(2,20,22,23)         133.1442         D2E/DX2 =    0.0131             !
 ! D59   D(2,20,22,26)        -105.0882         D2E/DX2 =    0.0126             !
 ! D60   D(2,20,22,27)          20.4453         D2E/DX2 =    0.0131             !
 ! D61   D(21,20,22,23)         15.788          D2E/DX2 =    0.0067             !
 ! D62   D(21,20,22,26)        137.5556         D2E/DX2 =    0.0157             !
 ! D63   D(21,20,22,27)        -96.9109         D2E/DX2 =    0.0158             !
 ! D64   D(20,21,23,22)         15.911          D2E/DX2 =    0.0072             !
 ! D65   D(20,21,23,28)        -97.8718         D2E/DX2 =    0.0164             !
 ! D66   D(20,21,23,29)        135.96           D2E/DX2 =    0.0152             !
 ! D67   D(24,21,23,22)        135.9031         D2E/DX2 =    0.0146             !
 ! D68   D(24,21,23,28)         22.1203         D2E/DX2 =    0.0134             !
 ! D69   D(24,21,23,29)       -104.0479         D2E/DX2 =    0.0137             !
 ! D70   D(25,21,23,22)        -95.7907         D2E/DX2 =    0.0157             !
 ! D71   D(25,21,23,28)        150.4265         D2E/DX2 =    0.0154             !
 ! D72   D(25,21,23,29)         24.2583         D2E/DX2 =    0.014              !
 ! D73   D(20,22,23,21)        -15.9085         D2E/DX2 =    0.007              !
 ! D74   D(20,22,23,28)         97.7433         D2E/DX2 =    0.0165             !
 ! D75   D(20,22,23,29)       -135.7972         D2E/DX2 =    0.0154             !
 ! D76   D(26,22,23,21)       -137.9693         D2E/DX2 =    0.0151             !
 ! D77   D(26,22,23,28)        -24.3175         D2E/DX2 =    0.0138             !
 ! D78   D(26,22,23,29)        102.142          D2E/DX2 =    0.014              !
 ! D79   D(27,22,23,21)         94.3356         D2E/DX2 =    0.0153             !
 ! D80   D(27,22,23,28)       -152.0126         D2E/DX2 =    0.0153             !
 ! D81   D(27,22,23,29)        -25.5531         D2E/DX2 =    0.0139             !
 --------------------------------------------------------------------------------
 Trust Radius=3.00D-01 FncErr=1.00D-07 GrdErr=1.00D-06 EigMax=2.50D+02 EigMin=1.00D-04
 Number of steps in this run=    174 maximum allowed number of steps=    174.
 Search for a saddle point of order  1.
 GradGradGradGradGradGradGradGradGradGradGradGradGradGradGradGradGradGrad

 Leave Link  103 at Sun Feb 12 18:25:36 2023, MaxMem=  1610612736 cpu:               0.1 elap:               0.0
 (Enter /home/zhouoh/g16/l202.exe)
                          Input orientation:                          
 ---------------------------------------------------------------------
 Center     Atomic      Atomic             Coordinates (Angstroms)
 Number     Number       Type             X           Y           Z
 ---------------------------------------------------------------------
      1          6           0        0.899866    0.663053   -0.312427
      2          8           0        2.945248    0.038454   -1.017999
      3          8           0        1.008234    1.196741   -1.527943
      4          8           0        1.375676    1.519388    0.783165
      5          6           0       -0.557523    0.302583    0.056904
      6          6           0       -0.947245    0.059293    1.393576
      7          6           0       -1.505649    0.208143   -0.932343
      8          6           0       -2.269405   -0.295040    1.723293
      9          1           0       -0.206655    0.163977    2.180052
     10          6           0       -2.880588   -0.149330   -0.646381
     11          1           0       -1.219528    0.410924   -1.959888
     12          6           0       -3.223833   -0.404157    0.741006
     13          1           0       -2.529364   -0.476467    2.762583
     14          8           0       -3.741274   -0.235998   -1.554132
     15          6           0        0.893914    2.829036    0.690002
     16          1           0       -0.190977    2.898779    0.889263
     17          1           0        1.413994    3.427372    1.446752
     18          1           0        1.081373    3.255745   -0.303071
     19          1           0       -4.251074   -0.674446    0.967299
     20          6           0        1.887937   -0.517368   -0.333837
     21          6           0        2.272347   -1.243367    0.989001
     22          6           0        1.314835   -1.870103   -0.850696
     23          6           0        1.332376   -2.405610    0.597970
     24          1           0        2.077844   -0.698940    1.917413
     25          1           0        3.325180   -1.547456    0.966204
     26          1           0        0.358246   -1.860248   -1.384388
     27          1           0        2.068832   -2.363710   -1.473722
     28          1           0        0.353898   -2.326309    1.082203
     29          1           0        1.712970   -3.420693    0.748161
 ---------------------------------------------------------------------
                    Distance matrix (angstroms):
                    1          2          3          4          5
     1  C    0.000000
     2  O    2.252009   0.000000
     3  O    1.331933   2.313805   0.000000
     4  O    1.469703   2.810856   2.362273   0.000000
     5  C    1.546068   3.673498   2.400594   2.396941   0.000000
     6  C    2.585883   4.579042   3.694991   2.810772   1.413423
     7  C    2.525419   4.454954   2.766166   3.600606   1.373489
     8  C    3.886692   5.900721   4.851687   4.178828   2.462630
     9  H    2.772349   4.491968   4.036308   2.508427   2.156404
    10  C    3.881150   5.840696   4.208562   4.789990   2.468900
    11  H    2.696206   4.286169   2.401460   3.935494   2.125427
    12  C    4.387887   6.430207   5.061758   4.985708   2.841951
    13  H    4.744872   6.673029   5.807137   4.811535   3.437408
    14  O    4.887771   6.713594   4.960973   5.893006   3.608570
    15  C    2.386709   3.861682   2.756218   1.398553   2.981685
    16  H    2.762692   4.653495   3.190286   2.090066   2.750893
    17  H    3.316700   4.461446   3.740209   2.020450   3.947514
    18  H    2.599054   3.786306   2.396906   2.069169   3.396576
    19  H    5.473462   7.499112   6.114564   6.042113   3.927560
    20  C    1.539525   1.376562   2.266702   2.378756   2.608692
    21  C    2.685490   2.474653   3.726542   2.911907   3.356625
    22  C    2.622749   2.515716   3.155662   3.763224   3.008326
    23  C    3.229950   3.344572   4.195415   3.929603   3.346458
    24  H    2.866155   3.148457   4.075310   2.588540   3.377825
    25  H    3.521845   2.568369   4.372599   3.638626   4.396004
    26  H    2.794548   3.229844   3.128622   4.141906   2.755684
    27  H    3.446213   2.597341   3.715457   4.544497   4.043473
    28  H    3.343555   4.088771   4.433159   3.990343   2.965299
    29  H    4.296855   4.074743   5.195960   4.951706   4.415400
                    6          7          8          9         10
     6  C    0.000000
     7  C    2.396637   0.000000
     8  C    1.407967   2.808722   0.000000
     9  H    1.085346   3.372883   2.162004   0.000000
    10  C    2.818291   1.449144   2.451557   3.903435   0.000000
    11  H    3.382825   1.085741   3.894413   4.269192   2.190503
    12  C    2.413190   2.475311   1.373946   3.390722   1.451756
    13  H    2.159704   3.894761   1.086563   2.478808   3.442588
    14  O    4.072196   2.362605   3.593244   5.157290   1.253915
    15  C    3.399465   3.906275   4.564442   3.245619   4.990336
    16  H    2.981435   3.505158   3.900763   3.024157   4.345478
    17  H    4.113664   4.954578   5.244068   3.716716   5.968035
    18  H    4.148639   4.046794   5.286013   4.169406   5.235411
    19  H    3.411066   3.453254   2.154643   4.304770   2.181271
    20  C    3.369681   3.521506   4.643781   3.342332   4.792908
    21  C    3.496624   4.480145   4.697448   3.089445   5.515807
    22  C    3.725095   3.504412   4.685405   3.954472   4.539205
    23  C    3.450421   4.150656   4.323619   3.387385   4.938449
    24  H    3.162354   4.667476   4.370285   2.456123   5.609025
    25  H    4.584529   5.479372   5.782829   4.108076   6.562526
    26  H    3.620225   2.820761   4.360287   4.137854   3.736568
    27  H    4.815502   4.436714   5.772400   4.991704   5.484955
    28  H    2.735146   3.733598   3.379167   2.778672   4.264873
    29  H    4.427596   5.133425   5.155570   4.311048   5.809246
                   11         12         13         14         15
    11  H    0.000000
    12  C    3.460697   0.000000
    13  H    4.980448   2.138759   0.000000
    14  O    2.634834   2.358746   4.490053   0.000000
    15  C    4.163631   5.235645   5.190450   5.992957   0.000000
    16  H    3.919822   4.486600   4.513277   5.329317   1.105241
    17  H    5.257337   6.057073   5.702757   7.000169   1.095974
    18  H    4.016490   5.746284   6.030345   6.084024   1.097003
    19  H    4.351635   1.086043   2.495301   2.609549   6.230745
    20  C    3.627962   5.224777   5.394630   5.766828   3.637959
    21  C    4.860639   5.565408   5.175921   6.606509   4.309750
    22  C    3.585580   5.028123   5.456727   5.359978   4.963147
    23  C    4.581235   4.978485   4.829097   5.922895   5.253783
    24  H    5.209407   5.438622   4.689368   6.791765   3.918526
    25  H    5.749055   6.651873   6.216887   7.616219   5.014083
    26  H    2.824676   4.412345   5.239323   4.412830   5.155523
    27  H    4.329926   6.062769   6.530802   6.187969   5.746890
    28  H    4.384339   4.075689   3.815599   5.300009   5.198367
    29  H    5.533025   5.785461   5.542902   6.722471   6.303439
                   16         17         18         19         20
    16  H    0.000000
    17  H    1.779364   0.000000
    18  H    1.779876   1.789406   0.000000
    19  H    5.409105   7.010548   6.745015   0.000000
    20  C    4.181856   4.353860   3.858481   6.277347   0.000000
    21  C    4.820299   4.770965   4.830101   6.548218   1.557160
    22  C    5.295013   5.775062   5.160302   5.976123   1.557396
    23  C    5.526482   5.894978   5.738102   5.857324   2.177698
    24  H    4.375868   4.205790   4.643602   6.399884   2.266530
    25  H    5.669064   5.350932   5.451281   7.626387   2.194734
    26  H    5.302780   6.090064   5.278782   5.308709   2.290620
    27  H    6.195500   6.518789   5.824412   6.982364   2.177393
    28  H    5.256963   5.861872   5.797200   4.893631   2.762374
    29  H    6.601564   6.890095   6.788139   6.569605   3.103326
                   21         22         23         24         25
    21  C    0.000000
    22  C    2.166590   0.000000
    23  C    1.545076   1.544574   0.000000
    24  H    1.093701   3.101005   2.282405   0.000000
    25  H    1.096105   2.728867   2.200748   1.783431   0.000000
    26  H    3.110836   1.095439   2.275103   3.899685   3.798134
    27  H    2.713225   1.095592   2.199098   3.777742   2.863201
    28  H    2.204971   2.206269   1.094618   2.513542   3.073855
    29  H    2.260897   2.262561   1.094442   2.984665   2.481085
                   26         27         28         29
    26  H    0.000000
    27  H    1.785374   0.000000
    28  H    2.510240   3.078173   0.000000
    29  H    2.969517   2.486084   1.776608   0.000000
 Stoichiometry    C12H13O4(1-)
 Framework group  C1[X(C12H13O4)]
 Deg. of freedom    81
 Full point group                 C1      NOp   1
 Largest Abelian subgroup         C1      NOp   1
 Largest concise Abelian subgroup C1      NOp   1
                         Standard orientation:                         
 ---------------------------------------------------------------------
 Center     Atomic      Atomic             Coordinates (Angstroms)
 Number     Number       Type             X           Y           Z
 ---------------------------------------------------------------------
      1          6           0        0.899866    0.663053   -0.312427
      2          8           0        2.945248    0.038454   -1.017999
      3          8           0        1.008234    1.196741   -1.527943
      4          8           0        1.375676    1.519388    0.783165
      5          6           0       -0.557523    0.302583    0.056904
      6          6           0       -0.947245    0.059293    1.393576
      7          6           0       -1.505649    0.208143   -0.932343
      8          6           0       -2.269405   -0.295040    1.723293
      9          1           0       -0.206655    0.163977    2.180052
     10          6           0       -2.880588   -0.149330   -0.646381
     11          1           0       -1.219528    0.410924   -1.959888
     12          6           0       -3.223833   -0.404157    0.741006
     13          1           0       -2.529364   -0.476467    2.762583
     14          8           0       -3.741274   -0.235998   -1.554132
     15          6           0        0.893914    2.829036    0.690002
     16          1           0       -0.190977    2.898779    0.889263
     17          1           0        1.413994    3.427372    1.446752
     18          1           0        1.081373    3.255745   -0.303071
     19          1           0       -4.251074   -0.674446    0.967299
     20          6           0        1.887937   -0.517368   -0.333837
     21          6           0        2.272347   -1.243367    0.989001
     22          6           0        1.314835   -1.870103   -0.850696
     23          6           0        1.332376   -2.405610    0.597970
     24          1           0        2.077844   -0.698940    1.917413
     25          1           0        3.325180   -1.547456    0.966204
     26          1           0        0.358246   -1.860248   -1.384388
     27          1           0        2.068832   -2.363710   -1.473722
     28          1           0        0.353898   -2.326309    1.082203
     29          1           0        1.712970   -3.420693    0.748161
 ---------------------------------------------------------------------
 Rotational constants (GHZ):           0.8311951           0.4203362           0.3838094
 Leave Link  202 at Sun Feb 12 18:25:36 2023, MaxMem=  1610612736 cpu:               0.0 elap:               0.0
 (Enter /home/zhouoh/g16/l301.exe)
 Standard basis: 6-31G(d) (6D, 7F)
 Ernie: Thresh=  0.10000D-02 Tol=  0.10000D-05 Strict=F.
 There are   266 symmetry adapted cartesian basis functions of A   symmetry.
 There are   266 symmetry adapted basis functions of A   symmetry.
   266 basis functions,   500 primitive gaussians,   266 cartesian basis functions
    59 alpha electrons       59 beta electrons
       nuclear repulsion energy      1142.7913322484 Hartrees.
 IExCor= 4639 DFT=T Ex+Corr=wB97XD ExCW=0 ScaHFX=  1.000000
 ScaDFX=  1.000000  1.000000  1.000000  1.000000 ScalE2=  1.000000  1.000000
 IRadAn=      5 IRanWt=     -1 IRanGd=            0 ICorTp=0 IEmpDi=121
 HFx  wShort=  0.000000 wLong=  0.200000 cFull=  0.222036 cShort=  0.000000 cLong=  0.777964
 DFx  wShort=  0.000000 wLong=  0.200000 cFull=  0.000000 cShort=  0.000000 cLong=  1.000000
 NAtoms=   29 NActive=   29 NUniq=   29 SFac= 1.00D+00 NAtFMM=   60 NAOKFM=F Big=F
 Integral buffers will be    131072 words long.
 Raffenetti 2 integral format.
 Two-electron integral symmetry is turned on.
 R6Disp:  Grimme-D2 Dispersion energy=       -0.0227378094 Hartrees.
 Nuclear repulsion after empirical dispersion term =     1142.7685944390 Hartrees.
 ------------------------------------------------------------------------------
 Polarizable Continuum Model (PCM)
 =================================
 Model                : PCM.
 Atomic radii         : SMD-Coulomb.
 Polarization charges : Total charges.
 Charge compensation  : None.
 Solution method      : On-the-fly selection.
 Cavity type          : VdW (van der Waals Surface) (Alpha=1.000).
 Cavity algorithm     : GePol (No added spheres)
                        Default sphere list used, NSphG=   29.
                        Lebedev-Laikov grids with approx.  5.0 points / Ang**2.
                        Smoothing algorithm: York/Karplus (Gamma=1.0000).
                        Polarization charges: spherical gaussians, with
                                              point-specific exponents (IZeta= 3).
                        Self-potential: point-specific (ISelfS= 7).
                        Self-field    : sphere-specific E.n sum rule (ISelfD= 2).
 1st derivatives      : Analytical E(r).r(x)/FMM algorithm (CHGder, D1EAlg=3).
                        Cavity 1st derivative terms included.
 Solvent              : DiMethylSulfoxide, Eps=  46.826000 Eps(inf)=   2.007889
 ------------------------------------------------------------------------------
 GePol: Number of generator spheres                  =      29
 GePol: Total number of spheres                      =      29
 GePol: Number of exposed spheres                    =      29 (100.00%)
 GePol: Number of points                             =    2230
 GePol: Average weight of points                     =       0.12
 GePol: Minimum weight of points                     =   0.13D-11
 GePol: Maximum weight of points                     =    0.17992
 GePol: Number of points with low weight             =     121
 GePol: Fraction of low-weight points (<1% of avg)   =       5.43%
 GePol: Cavity surface area                          =    268.096 Ang**2
 GePol: Cavity volume                                =    280.052 Ang**3
 ------------------------------------------------------------------------------
 Atomic radii for non-electrostatic terms: SMD-CDS.
 ------------------------------------------------------------------------------
 PCM non-electrostatic energy =        -0.0042385182 Hartrees.
 Nuclear repulsion after PCM non-electrostatic terms =     1142.7643559209 Hartrees.
 Leave Link  301 at Sun Feb 12 18:25:36 2023, MaxMem=  1610612736 cpu:               0.4 elap:               0.0
 (Enter /home/zhouoh/g16/l302.exe)
 NPDir=0 NMtPBC=     1 NCelOv=     1 NCel=       1 NClECP=     1 NCelD=      1
         NCelK=      1 NCelE2=     1 NClLst=     1 CellRange=     0.0.
 One-electron integrals computed using PRISM.
 One-electron integral symmetry used in STVInt
 NBasis=   266 RedAO= T EigKep=  4.63D-04  NBF=   266
 NBsUse=   266 1.00D-06 EigRej= -1.00D+00 NBFU=   266
 Precomputing XC quadrature grid using
 IXCGrd= 4 IRadAn=           5 IRanWt=          -1 IRanGd=           0 AccXCQ= 0.00D+00.
 Generated NRdTot=       0 NPtTot=           0 NUsed=           0 NTot=          32
 NSgBfM=   266   266   266   266   266 MxSgAt=    29 MxSgA2=    29.
 Leave Link  302 at Sun Feb 12 18:25:36 2023, MaxMem=  1610612736 cpu:               1.6 elap:               0.1
 (Enter /home/zhouoh/g16/l303.exe)
 DipDrv:  MaxL=1.
 Leave Link  303 at Sun Feb 12 18:25:36 2023, MaxMem=  1610612736 cpu:               0.2 elap:               0.0
 (Enter /home/zhouoh/g16/l401.exe)
 Initial guess from the checkpoint file:  "TScc-pos.chk"
 B after Tr=    -0.000000    0.000000    0.000000
         Rot=    1.000000   -0.000000    0.000000   -0.000000 Ang=   0.00 deg.
 Guess basis will be translated and rotated to current coordinates.
 JPrj=2 DoOrth=T DoCkMO=T.
 Initial guess <Sx>= 0.0000 <Sy>= 0.0000 <Sz>= 0.0000 <S**2>= 1.0548 S= 0.6423
 Leave Link  401 at Sun Feb 12 18:25:36 2023, MaxMem=  1610612736 cpu:               0.9 elap:               0.1
 (Enter /home/zhouoh/g16/l502.exe)
 Integral symmetry usage will be decided dynamically.
 UHF open shell SCF:
 Using DIIS extrapolation, IDIIS=  1040.
 NGot=  1610612736 LenX=  1610465009 LenY=  1610393812
 Requested convergence on RMS density matrix=1.00D-08 within 128 cycles.
 Requested convergence on MAX density matrix=1.00D-06.
 Requested convergence on             energy=1.00D-06.
 No special actions if energy rises.
 Fock matrices will be formed incrementally for  20 cycles.

 Cycle   1  Pass 1  IDiag  1:
 FoFJK:  IHMeth= 1 ICntrl=       0 DoSepK=T KAlg= 0 I1Cent=           0 FoldK=F
 IRaf=         1 NMat=       1 IRICut=       1 DoRegI=T DoRafI=F ISym2E= 0 IDoP0=0 IntGTp=1.
 FoFCou: FMM=F IPFlag=           0 FMFlag=      100000 FMFlg1=           0
         NFxFlg=           0 DoJE=T BraDBF=F KetDBF=F FulRan=T
         wScrn=  0.000000 ICntrl=       500 IOpCl=  0 I1Cent=           0 NGrid=           0
         NMat0=    1 NMatS0=      1 NMatT0=    0 NMatD0=    1 NMtDS0=    0 NMtDT0=    0
 Symmetry not used in FoFCou.
 Inv3:  Mode=1 IEnd=    14918700.
 Iteration    1 A*A^-1 deviation from unit magnitude is 3.11D-15 for   1809.
 Iteration    1 A*A^-1 deviation from orthogonality  is 2.50D-15 for   1156    274.
 Iteration    1 A^-1*A deviation from unit magnitude is 3.11D-15 for    559.
 Iteration    1 A^-1*A deviation from orthogonality  is 3.87D-15 for   2120   1212.
 E= -765.707605439557    
 DIIS: error= 2.50D-08 at cycle   1 NSaved=   1.
 NSaved= 1 IEnMin= 1 EnMin= -765.707605439557     IErMin= 1 ErrMin= 2.50D-08
 ErrMax= 2.50D-08  0.00D+00 EMaxC= 1.00D-01 BMatC= 9.60D-14 BMatP= 9.60D-14
 IDIUse=1 WtCom= 1.00D+00 WtEn= 0.00D+00
 Coeff-Com:  0.100D+01
 Coeff:      0.100D+01
 Gap=     0.232 Goal=   None    Shift=    0.000
 Gap=     0.206 Goal=   None    Shift=    0.000
 RMSDP=1.70D-09 MaxDP=9.71D-08              OVMax= 4.04D-07

 Error on total polarization charges =  0.02717
 SCF Done:  E(UwB97XD) =  -765.707605440     A.U. after    1 cycles
            NFock=  1  Conv=0.17D-08     -V/T= 2.0087
 <Sx>= 0.0000 <Sy>= 0.0000 <Sz>= 0.0000 <S**2>= 1.0548 S= 0.6423
 <L.S>=  0.00000000000    
 KE= 7.591187258464D+02 PE=-4.091715214590D+03 EE= 1.424124527384D+03
 SMD-CDS (non-electrostatic) energy       (kcal/mol) =      -2.66
 (included in total energy above)
 Annihilation of the first spin contaminant:
 S**2 before annihilation     1.0548,   after     0.4413
 Leave Link  502 at Sun Feb 12 18:25:40 2023, MaxMem=  1610612736 cpu:              42.0 elap:               3.7
 (Enter /home/zhouoh/g16/l601.exe)
 Copying SCF densities to generalized density rwf, IOpCl= 1 IROHF=0.

 **********************************************************************

            Population analysis using the SCF density.

 **********************************************************************

 Orbital symmetries:
 Alpha Orbitals:
       Occupied  (A) (A) (A) (A) (A) (A) (A) (A) (A) (A) (A) (A)
                 (A) (A) (A) (A) (A) (A) (A) (A) (A) (A) (A) (A)
                 (A) (A) (A) (A) (A) (A) (A) (A) (A) (A) (A) (A)
                 (A) (A) (A) (A) (A) (A) (A) (A) (A) (A) (A) (A)
                 (A) (A) (A) (A) (A) (A) (A) (A) (A) (A) (A)
       Virtual   (A) (A) (A) (A) (A) (A) (A) (A) (A) (A) (A) (A)
                 (A) (A) (A) (A) (A) (A) (A) (A) (A) (A) (A) (A)
                 (A) (A) (A) (A) (A) (A) (A) (A) (A) (A) (A) (A)
                 (A) (A) (A) (A) (A) (A) (A) (A) (A) (A) (A) (A)
                 (A) (A) (A) (A) (A) (A) (A) (A) (A) (A) (A) (A)
                 (A) (A) (A) (A) (A) (A) (A) (A) (A) (A) (A) (A)
                 (A) (A) (A) (A) (A) (A) (A) (A) (A) (A) (A) (A)
                 (A) (A) (A) (A) (A) (A) (A) (A) (A) (A) (A) (A)
                 (A) (A) (A) (A) (A) (A) (A) (A) (A) (A) (A) (A)
                 (A) (A) (A) (A) (A) (A) (A) (A) (A) (A) (A) (A)
                 (A) (A) (A) (A) (A) (A) (A) (A) (A) (A) (A) (A)
                 (A) (A) (A) (A) (A) (A) (A) (A) (A) (A) (A) (A)
                 (A) (A) (A) (A) (A) (A) (A) (A) (A) (A) (A) (A)
                 (A) (A) (A) (A) (A) (A) (A) (A) (A) (A) (A) (A)
                 (A) (A) (A) (A) (A) (A) (A) (A) (A) (A) (A) (A)
                 (A) (A) (A) (A) (A) (A) (A) (A) (A) (A) (A) (A)
                 (A) (A) (A) (A) (A) (A) (A) (A) (A) (A) (A) (A)
                 (A) (A) (A)
 Beta  Orbitals:
       Occupied  (A) (A) (A) (A) (A) (A) (A) (A) (A) (A) (A) (A)
                 (A) (A) (A) (A) (A) (A) (A) (A) (A) (A) (A) (A)
                 (A) (A) (A) (A) (A) (A) (A) (A) (A) (A) (A) (A)
                 (A) (A) (A) (A) (A) (A) (A) (A) (A) (A) (A) (A)
                 (A) (A) (A) (A) (A) (A) (A) (A) (A) (A) (A)
       Virtual   (A) (A) (A) (A) (A) (A) (A) (A) (A) (A) (A) (A)
                 (A) (A) (A) (A) (A) (A) (A) (A) (A) (A) (A) (A)
                 (A) (A) (A) (A) (A) (A) (A) (A) (A) (A) (A) (A)
                 (A) (A) (A) (A) (A) (A) (A) (A) (A) (A) (A) (A)
                 (A) (A) (A) (A) (A) (A) (A) (A) (A) (A) (A) (A)
                 (A) (A) (A) (A) (A) (A) (A) (A) (A) (A) (A) (A)
                 (A) (A) (A) (A) (A) (A) (A) (A) (A) (A) (A) (A)
                 (A) (A) (A) (A) (A) (A) (A) (A) (A) (A) (A) (A)
                 (A) (A) (A) (A) (A) (A) (A) (A) (A) (A) (A) (A)
                 (A) (A) (A) (A) (A) (A) (A) (A) (A) (A) (A) (A)
                 (A) (A) (A) (A) (A) (A) (A) (A) (A) (A) (A) (A)
                 (A) (A) (A) (A) (A) (A) (A) (A) (A) (A) (A) (A)
                 (A) (A) (A) (A) (A) (A) (A) (A) (A) (A) (A) (A)
                 (A) (A) (A) (A) (A) (A) (A) (A) (A) (A) (A) (A)
                 (A) (A) (A) (A) (A) (A) (A) (A) (A) (A) (A) (A)
                 (A) (A) (A) (A) (A) (A) (A) (A) (A) (A) (A) (A)
                 (A) (A) (A) (A) (A) (A) (A) (A) (A) (A) (A) (A)
                 (A) (A) (A)
 The electronic state is 1-A.
 Alpha  occ. eigenvalues --  -19.25050 -19.22441 -19.21600 -19.14854 -10.35694
 Alpha  occ. eigenvalues --  -10.34119 -10.31021 -10.30343 -10.30259 -10.30183
 Alpha  occ. eigenvalues --  -10.30178 -10.29148 -10.28800 -10.27376 -10.26708
 Alpha  occ. eigenvalues --  -10.26098  -1.11786  -1.09960  -1.02439  -0.97176
 Alpha  occ. eigenvalues --   -0.94164  -0.89660  -0.84590  -0.81551  -0.76490
 Alpha  occ. eigenvalues --   -0.73243  -0.70597  -0.69036  -0.67330  -0.63628
 Alpha  occ. eigenvalues --   -0.59375  -0.57693  -0.55444  -0.54844  -0.53529
 Alpha  occ. eigenvalues --   -0.52197  -0.51492  -0.49894  -0.49566  -0.48741
 Alpha  occ. eigenvalues --   -0.48461  -0.46249  -0.44927  -0.43891  -0.43686
 Alpha  occ. eigenvalues --   -0.42639  -0.42237  -0.41762  -0.38382  -0.37568
 Alpha  occ. eigenvalues --   -0.37436  -0.36437  -0.33324  -0.33091  -0.30269
 Alpha  occ. eigenvalues --   -0.28484  -0.28097  -0.25943  -0.22855
 Alpha virt. eigenvalues --    0.00368   0.07272   0.08625   0.18931   0.20041
 Alpha virt. eigenvalues --    0.21716   0.23189   0.23662   0.24266   0.24795
 Alpha virt. eigenvalues --    0.26215   0.26614   0.27606   0.28149   0.28619
 Alpha virt. eigenvalues --    0.28768   0.29496   0.29741   0.32552   0.32840
 Alpha virt. eigenvalues --    0.33893   0.35132   0.36341   0.37209   0.39073
 Alpha virt. eigenvalues --    0.39950   0.41066   0.41386   0.45671   0.48520
 Alpha virt. eigenvalues --    0.50143   0.52137   0.57494   0.59700   0.60538
 Alpha virt. eigenvalues --    0.61341   0.62518   0.63564   0.64622   0.64997
 Alpha virt. eigenvalues --    0.65882   0.67214   0.67892   0.68845   0.70224
 Alpha virt. eigenvalues --    0.71273   0.72005   0.73552   0.74570   0.75632
 Alpha virt. eigenvalues --    0.76654   0.77030   0.78421   0.78839   0.79802
 Alpha virt. eigenvalues --    0.82896   0.83980   0.87424   0.87727   0.88584
 Alpha virt. eigenvalues --    0.90624   0.91596   0.93271   0.93969   0.95069
 Alpha virt. eigenvalues --    0.95354   0.96496   0.97280   0.97752   0.98505
 Alpha virt. eigenvalues --    0.99502   1.00298   1.01334   1.01780   1.02264
 Alpha virt. eigenvalues --    1.02535   1.03533   1.05460   1.07526   1.08504
 Alpha virt. eigenvalues --    1.09625   1.10665   1.11619   1.12478   1.13648
 Alpha virt. eigenvalues --    1.14569   1.17347   1.19481   1.20504   1.22439
 Alpha virt. eigenvalues --    1.23379   1.27089   1.28894   1.30399   1.31866
 Alpha virt. eigenvalues --    1.32535   1.33927   1.35945   1.37948   1.39980
 Alpha virt. eigenvalues --    1.43030   1.45710   1.48307   1.49568   1.51323
 Alpha virt. eigenvalues --    1.53642   1.54250   1.56548   1.58095   1.60657
 Alpha virt. eigenvalues --    1.61173   1.66844   1.67201   1.68767   1.70078
 Alpha virt. eigenvalues --    1.75506   1.79545   1.81223   1.82995   1.85045
 Alpha virt. eigenvalues --    1.88996   1.89703   1.91122   1.92493   1.93472
 Alpha virt. eigenvalues --    1.93970   1.97906   1.98846   2.00528   2.00805
 Alpha virt. eigenvalues --    2.02401   2.04662   2.05356   2.06016   2.07113
 Alpha virt. eigenvalues --    2.08748   2.09637   2.10766   2.11933   2.14731
 Alpha virt. eigenvalues --    2.15042   2.16915   2.18433   2.18942   2.22640
 Alpha virt. eigenvalues --    2.23574   2.24097   2.26211   2.26356   2.27765
 Alpha virt. eigenvalues --    2.28930   2.31346   2.32592   2.35363   2.36920
 Alpha virt. eigenvalues --    2.37081   2.38578   2.41767   2.43012   2.45863
 Alpha virt. eigenvalues --    2.46967   2.50822   2.53206   2.57631   2.58811
 Alpha virt. eigenvalues --    2.60300   2.62293   2.66020   2.66434   2.68117
 Alpha virt. eigenvalues --    2.68918   2.71309   2.72130   2.72964   2.75838
 Alpha virt. eigenvalues --    2.79545   2.82815   2.84309   2.85811   2.91682
 Alpha virt. eigenvalues --    2.93979   2.97182   3.01410   3.05129   3.10426
 Alpha virt. eigenvalues --    3.11654   3.13988   3.22191   3.22931   3.29132
 Alpha virt. eigenvalues --    3.48521   4.05922   4.08115   4.19465   4.23441
 Alpha virt. eigenvalues --    4.28881   4.32869   4.34291   4.37921   4.40870
 Alpha virt. eigenvalues --    4.49759   4.51269   4.56011   4.66130   4.85684
 Alpha virt. eigenvalues --    4.91581   5.00447
  Beta  occ. eigenvalues --  -19.24119 -19.23337 -19.22437 -19.15468 -10.35812
  Beta  occ. eigenvalues --  -10.34142 -10.30554 -10.30379 -10.30217 -10.30178
  Beta  occ. eigenvalues --  -10.29980 -10.28991 -10.28827 -10.27371 -10.26781
  Beta  occ. eigenvalues --  -10.26096  -1.10439  -1.09851  -1.05558  -0.99083
  Beta  occ. eigenvalues --   -0.93507  -0.90373  -0.84332  -0.80066  -0.76525
  Beta  occ. eigenvalues --   -0.73356  -0.70690  -0.69034  -0.67034  -0.63790
  Beta  occ. eigenvalues --   -0.59163  -0.57650  -0.55746  -0.54576  -0.53557
  Beta  occ. eigenvalues --   -0.52468  -0.51337  -0.49364  -0.48988  -0.48621
  Beta  occ. eigenvalues --   -0.47458  -0.46651  -0.45531  -0.44619  -0.43623
  Beta  occ. eigenvalues --   -0.42910  -0.42256  -0.39281  -0.38997  -0.37946
  Beta  occ. eigenvalues --   -0.37326  -0.37006  -0.33361  -0.32149  -0.31088
  Beta  occ. eigenvalues --   -0.30315  -0.29299  -0.27128  -0.25707
  Beta virt. eigenvalues --   -0.05104   0.08784   0.11560   0.19043   0.19951
  Beta virt. eigenvalues --    0.21756   0.23176   0.23848   0.24387   0.25730
  Beta virt. eigenvalues --    0.26351   0.26849   0.27722   0.28214   0.28620
  Beta virt. eigenvalues --    0.28793   0.29401   0.29784   0.32519   0.33110
  Beta virt. eigenvalues --    0.33970   0.35212   0.36408   0.37253   0.38742
  Beta virt. eigenvalues --    0.39897   0.40962   0.41185   0.45314   0.48514
  Beta virt. eigenvalues --    0.50181   0.52091   0.57474   0.59950   0.60984
  Beta virt. eigenvalues --    0.61684   0.62621   0.63811   0.64632   0.65206
  Beta virt. eigenvalues --    0.66159   0.67154   0.68010   0.68888   0.70405
  Beta virt. eigenvalues --    0.71057   0.71856   0.73540   0.75162   0.75866
  Beta virt. eigenvalues --    0.76626   0.77308   0.78338   0.79303   0.79625
  Beta virt. eigenvalues --    0.82885   0.83835   0.87497   0.87961   0.88535
  Beta virt. eigenvalues --    0.90666   0.91501   0.92932   0.93959   0.95127
  Beta virt. eigenvalues --    0.95586   0.96740   0.97265   0.97528   0.98267
  Beta virt. eigenvalues --    0.99536   1.00245   1.01368   1.01448   1.02230
  Beta virt. eigenvalues --    1.02532   1.03465   1.05466   1.06933   1.08736
  Beta virt. eigenvalues --    1.09942   1.10427   1.11848   1.13440   1.13865
  Beta virt. eigenvalues --    1.14394   1.17649   1.18943   1.20034   1.22511
  Beta virt. eigenvalues --    1.23139   1.27048   1.28668   1.30318   1.31510
  Beta virt. eigenvalues --    1.32093   1.33811   1.35875   1.37838   1.38973
  Beta virt. eigenvalues --    1.42860   1.45879   1.48288   1.50259   1.51436
  Beta virt. eigenvalues --    1.53649   1.54942   1.57254   1.59196   1.60731
  Beta virt. eigenvalues --    1.61104   1.66538   1.66981   1.68826   1.69757
  Beta virt. eigenvalues --    1.75234   1.79231   1.80985   1.83040   1.85084
  Beta virt. eigenvalues --    1.88883   1.91299   1.91390   1.92310   1.93120
  Beta virt. eigenvalues --    1.93687   1.97364   1.99728   2.00116   2.00883
  Beta virt. eigenvalues --    2.02229   2.04261   2.05297   2.07186   2.07641
  Beta virt. eigenvalues --    2.08385   2.09245   2.10475   2.11962   2.14068
  Beta virt. eigenvalues --    2.15039   2.16670   2.17760   2.18430   2.22146
  Beta virt. eigenvalues --    2.23286   2.24380   2.25799   2.26657   2.28149
  Beta virt. eigenvalues --    2.28859   2.30910   2.32395   2.35786   2.36707
  Beta virt. eigenvalues --    2.36961   2.38951   2.41884   2.43343   2.45815
  Beta virt. eigenvalues --    2.46857   2.50657   2.53059   2.57604   2.58731
  Beta virt. eigenvalues --    2.59982   2.62156   2.65845   2.66490   2.68204
  Beta virt. eigenvalues --    2.69700   2.71358   2.72398   2.73388   2.75696
  Beta virt. eigenvalues --    2.79452   2.83287   2.84086   2.85943   2.91970
  Beta virt. eigenvalues --    2.93910   2.97085   3.01163   3.05157   3.10156
  Beta virt. eigenvalues --    3.11421   3.13738   3.21424   3.22706   3.29283
  Beta virt. eigenvalues --    3.48737   4.06292   4.07033   4.19831   4.23509
  Beta virt. eigenvalues --    4.28655   4.33581   4.34444   4.38487   4.40809
  Beta virt. eigenvalues --    4.49544   4.51738   4.55790   4.66180   4.85843
  Beta virt. eigenvalues --    4.91686   5.00422
          Condensed to atoms (all electrons):
               1          2          3          4          5          6
     1  C    4.625523  -0.052361   0.351474   0.143265   0.221350  -0.031574
     2  O   -0.052361   8.352358   0.012279   0.000695   0.004375  -0.000034
     3  O    0.351474   0.012279   8.492857  -0.064681  -0.094277   0.004771
     4  O    0.143265   0.000695  -0.064681   8.450120  -0.085836   0.004329
     5  C    0.221350   0.004375  -0.094277  -0.085836   5.251516   0.454838
     6  C   -0.031574  -0.000034   0.004771   0.004329   0.454838   5.119689
     7  C   -0.019326  -0.000048   0.004869   0.004604   0.419721  -0.090002
     8  C    0.002765   0.000001  -0.000060   0.000798  -0.036748   0.464427
     9  H   -0.005184  -0.000001   0.000140   0.011736  -0.037728   0.364099
    10  C    0.004371  -0.000000   0.001376   0.000000  -0.024795  -0.027781
    11  H   -0.006355  -0.000062   0.025479   0.000414  -0.045742   0.006183
    12  C   -0.000060  -0.000000  -0.000004  -0.000009  -0.015198  -0.044284
    13  H   -0.000055  -0.000000   0.000000   0.000001   0.002561  -0.033394
    14  O   -0.000069  -0.000000  -0.000000   0.000000   0.006521   0.000082
    15  C   -0.030098  -0.000200  -0.006077   0.240977  -0.007306  -0.002120
    16  H   -0.008367  -0.000002  -0.000628  -0.045715   0.013649   0.000916
    17  H    0.005364  -0.000006   0.000345  -0.036419  -0.000347  -0.000019
    18  H   -0.007468   0.000135   0.025313  -0.043566  -0.000444   0.000692
    19  H    0.000005   0.000000  -0.000000  -0.000000  -0.000230   0.003871
    20  C    0.362525   0.252783  -0.059967  -0.046882  -0.086522  -0.001710
    21  C   -0.022987  -0.044979   0.005925  -0.002077  -0.001924   0.001271
    22  C   -0.056795  -0.054054  -0.001244   0.003924  -0.000061  -0.000780
    23  C    0.003465   0.004736   0.000142   0.000041  -0.000535  -0.002790
    24  H   -0.007437   0.001952   0.000076   0.007396   0.000143   0.000036
    25  H    0.003803   0.001204  -0.000111  -0.000134  -0.000186   0.000016
    26  H   -0.005300   0.001859   0.002142   0.000103   0.001783   0.000048
    27  H    0.004478   0.004673  -0.000299  -0.000063   0.000014   0.000014
    28  H    0.000556  -0.000110  -0.000001  -0.000007   0.001092   0.005560
    29  H   -0.000290  -0.000170   0.000000  -0.000000   0.000087   0.000085
               7          8          9         10         11         12
     1  C   -0.019326   0.002765  -0.005184   0.004371  -0.006355  -0.000060
     2  O   -0.000048   0.000001  -0.000001  -0.000000  -0.000062  -0.000000
     3  O    0.004869  -0.000060   0.000140   0.001376   0.025479  -0.000004
     4  O    0.004604   0.000798   0.011736   0.000000   0.000414  -0.000009
     5  C    0.419721  -0.036748  -0.037728  -0.024795  -0.045742  -0.015198
     6  C   -0.090002   0.464427   0.364099  -0.027781   0.006183  -0.044284
     7  C    5.429781  -0.018810   0.004769   0.362516   0.343068  -0.105675
     8  C   -0.018810   5.021360  -0.037624  -0.019408  -0.000572   0.474223
     9  H    0.004769  -0.037624   0.492386   0.000364  -0.000114   0.003591
    10  C    0.362516  -0.019408   0.000364   4.477159  -0.032175   0.430217
    11  H    0.343068  -0.000572  -0.000114  -0.032175   0.520426   0.005667
    12  C   -0.105675   0.474223   0.003591   0.430217   0.005667   5.213321
    13  H    0.000088   0.369756  -0.003006   0.002205   0.000013  -0.029236
    14  O   -0.062256   0.005961   0.000001   0.449802   0.000494  -0.067809
    15  C   -0.000171  -0.000177  -0.000148   0.000004   0.000065   0.000010
    16  H    0.000230  -0.000429  -0.000869  -0.000021  -0.000063   0.000014
    17  H    0.000023  -0.000002  -0.000012   0.000000   0.000002  -0.000000
    18  H   -0.000313   0.000022   0.000132  -0.000017  -0.000085  -0.000001
    19  H    0.005461  -0.034001  -0.000109  -0.032323  -0.000080   0.361637
    20  C   -0.000507  -0.000087   0.000491   0.000004   0.001166   0.000001
    21  C   -0.000013   0.000038   0.000350   0.000003  -0.000029  -0.000001
    22  C    0.000470   0.000001   0.000288  -0.000196   0.000098   0.000017
    23  C   -0.000505  -0.000605  -0.000529   0.000030   0.000024  -0.000002
    24  H   -0.000017   0.000079   0.002676  -0.000000  -0.000001  -0.000000
    25  H    0.000000  -0.000001   0.000022   0.000000   0.000000  -0.000000
    26  H    0.005365  -0.000042  -0.000026   0.000062   0.000253   0.000005
    27  H   -0.000017  -0.000001  -0.000001   0.000003  -0.000002  -0.000000
    28  H   -0.000159   0.001079  -0.000220  -0.000033  -0.000008   0.000031
    29  H    0.000004   0.000005   0.000003  -0.000001  -0.000000  -0.000001
              13         14         15         16         17         18
     1  C   -0.000055  -0.000069  -0.030098  -0.008367   0.005364  -0.007468
     2  O   -0.000000  -0.000000  -0.000200  -0.000002  -0.000006   0.000135
     3  O    0.000000  -0.000000  -0.006077  -0.000628   0.000345   0.025313
     4  O    0.000001   0.000000   0.240977  -0.045715  -0.036419  -0.043566
     5  C    0.002561   0.006521  -0.007306   0.013649  -0.000347  -0.000444
     6  C   -0.033394   0.000082  -0.002120   0.000916  -0.000019   0.000692
     7  C    0.000088  -0.062256  -0.000171   0.000230   0.000023  -0.000313
     8  C    0.369756   0.005961  -0.000177  -0.000429  -0.000002   0.000022
     9  H   -0.003006   0.000001  -0.000148  -0.000869  -0.000012   0.000132
    10  C    0.002205   0.449802   0.000004  -0.000021   0.000000  -0.000017
    11  H    0.000013   0.000494   0.000065  -0.000063   0.000002  -0.000085
    12  C   -0.029236  -0.067809   0.000010   0.000014  -0.000000  -0.000001
    13  H    0.486863  -0.000054   0.000000  -0.000011   0.000000  -0.000000
    14  O   -0.000054   8.205799   0.000000  -0.000001   0.000000   0.000000
    15  C    0.000000   0.000000   4.941460   0.358783   0.387459   0.361641
    16  H   -0.000011  -0.000001   0.358783   0.652007  -0.038164  -0.047918
    17  H    0.000000   0.000000   0.387459  -0.038164   0.557273  -0.030654
    18  H   -0.000000   0.000000   0.361641  -0.047918  -0.030654   0.596226
    19  H   -0.003714   0.000853  -0.000000   0.000000  -0.000000  -0.000000
    20  C    0.000002   0.000001   0.005379  -0.000376   0.000010   0.000501
    21  C   -0.000000   0.000000  -0.000196  -0.000002  -0.000039  -0.000037
    22  C   -0.000000  -0.000000  -0.000184   0.000010   0.000002  -0.000012
    23  C   -0.000003   0.000000  -0.000007   0.000004  -0.000000  -0.000000
    24  H   -0.000003   0.000000  -0.000359  -0.000004   0.000010   0.000014
    25  H    0.000000   0.000000   0.000012  -0.000000   0.000000   0.000002
    26  H   -0.000000  -0.000014  -0.000009  -0.000000  -0.000000  -0.000002
    27  H    0.000000   0.000000   0.000003  -0.000000  -0.000000   0.000000
    28  H    0.000011  -0.000000   0.000002   0.000000  -0.000000  -0.000000
    29  H    0.000000  -0.000000   0.000000  -0.000000   0.000000  -0.000000
              19         20         21         22         23         24
     1  C    0.000005   0.362525  -0.022987  -0.056795   0.003465  -0.007437
     2  O    0.000000   0.252783  -0.044979  -0.054054   0.004736   0.001952
     3  O   -0.000000  -0.059967   0.005925  -0.001244   0.000142   0.000076
     4  O   -0.000000  -0.046882  -0.002077   0.003924   0.000041   0.007396
     5  C   -0.000230  -0.086522  -0.001924  -0.000061  -0.000535   0.000143
     6  C    0.003871  -0.001710   0.001271  -0.000780  -0.002790   0.000036
     7  C    0.005461  -0.000507  -0.000013   0.000470  -0.000505  -0.000017
     8  C   -0.034001  -0.000087   0.000038   0.000001  -0.000605   0.000079
     9  H   -0.000109   0.000491   0.000350   0.000288  -0.000529   0.002676
    10  C   -0.032323   0.000004   0.000003  -0.000196   0.000030  -0.000000
    11  H   -0.000080   0.001166  -0.000029   0.000098   0.000024  -0.000001
    12  C    0.361637   0.000001  -0.000001   0.000017  -0.000002  -0.000000
    13  H   -0.003714   0.000002  -0.000000  -0.000000  -0.000003  -0.000003
    14  O    0.000853   0.000001   0.000000  -0.000000   0.000000   0.000000
    15  C   -0.000000   0.005379  -0.000196  -0.000184  -0.000007  -0.000359
    16  H    0.000000  -0.000376  -0.000002   0.000010   0.000004  -0.000004
    17  H   -0.000000   0.000010  -0.000039   0.000002  -0.000000   0.000010
    18  H   -0.000000   0.000501  -0.000037  -0.000012  -0.000000   0.000014
    19  H    0.497900   0.000000  -0.000000   0.000000  -0.000000   0.000000
    20  C    0.000000   4.785734   0.298690   0.334484  -0.114907  -0.024772
    21  C   -0.000000   0.298690   5.354942  -0.229889   0.333660   0.363361
    22  C    0.000000   0.334484  -0.229889   5.376285   0.330431   0.012217
    23  C   -0.000000  -0.114907   0.333660   0.330431   5.160478  -0.026075
    24  H    0.000000  -0.024772   0.363361   0.012217  -0.026075   0.539020
    25  H   -0.000000  -0.024300   0.355797   0.002473  -0.029489  -0.029435
    26  H   -0.000000  -0.024535   0.013480   0.355622  -0.027040  -0.000420
    27  H   -0.000000  -0.025448   0.004085   0.349971  -0.028543  -0.000397
    28  H   -0.000001  -0.001516  -0.031478  -0.029525   0.375217  -0.005489
    29  H   -0.000000   0.006774  -0.025729  -0.024727   0.374180   0.002089
              25         26         27         28         29
     1  C    0.003803  -0.005300   0.004478   0.000556  -0.000290
     2  O    0.001204   0.001859   0.004673  -0.000110  -0.000170
     3  O   -0.000111   0.002142  -0.000299  -0.000001   0.000000
     4  O   -0.000134   0.000103  -0.000063  -0.000007  -0.000000
     5  C   -0.000186   0.001783   0.000014   0.001092   0.000087
     6  C    0.000016   0.000048   0.000014   0.005560   0.000085
     7  C    0.000000   0.005365  -0.000017  -0.000159   0.000004
     8  C   -0.000001  -0.000042  -0.000001   0.001079   0.000005
     9  H    0.000022  -0.000026  -0.000001  -0.000220   0.000003
    10  C    0.000000   0.000062   0.000003  -0.000033  -0.000001
    11  H    0.000000   0.000253  -0.000002  -0.000008  -0.000000
    12  C   -0.000000   0.000005  -0.000000   0.000031  -0.000001
    13  H    0.000000  -0.000000   0.000000   0.000011   0.000000
    14  O    0.000000  -0.000014   0.000000  -0.000000  -0.000000
    15  C    0.000012  -0.000009   0.000003   0.000002   0.000000
    16  H   -0.000000  -0.000000  -0.000000   0.000000  -0.000000
    17  H    0.000000  -0.000000  -0.000000  -0.000000   0.000000
    18  H    0.000002  -0.000002   0.000000  -0.000000  -0.000000
    19  H   -0.000000  -0.000000  -0.000000  -0.000001  -0.000000
    20  C   -0.024300  -0.024535  -0.025448  -0.001516   0.006774
    21  C    0.355797   0.013480   0.004085  -0.031478  -0.025729
    22  C    0.002473   0.355622   0.349971  -0.029525  -0.024727
    23  C   -0.029489  -0.027040  -0.028543   0.375217   0.374180
    24  H   -0.029435  -0.000420  -0.000397  -0.005489   0.002089
    25  H    0.565592  -0.000396   0.001956   0.003780  -0.006780
    26  H   -0.000396   0.562843  -0.028686  -0.005730   0.002122
    27  H    0.001956  -0.028686   0.573061   0.003720  -0.006696
    28  H    0.003780  -0.005730   0.003720   0.553870  -0.030995
    29  H   -0.006780   0.002122  -0.006696  -0.030995   0.550001
          Atomic-Atomic Spin Densities.
               1          2          3          4          5          6
     1  C   -0.037568   0.022488  -0.006603  -0.002717  -0.018873   0.001548
     2  O    0.022488  -0.829216   0.047971  -0.000582   0.001113  -0.000019
     3  O   -0.006603   0.047971  -0.283489  -0.000490  -0.000695  -0.000159
     4  O   -0.002717  -0.000582  -0.000490   0.005704   0.000835  -0.001082
     5  C   -0.018873   0.001113  -0.000695   0.000835  -0.161522   0.003117
     6  C    0.001548  -0.000019  -0.000159  -0.001082   0.003117   0.466857
     7  C    0.000540  -0.000105  -0.000856   0.000198  -0.016023  -0.015518
     8  C   -0.000171   0.000000   0.000004  -0.000006  -0.002080   0.018057
     9  H    0.000129   0.000001   0.000000   0.000233   0.000049  -0.002425
    10  C    0.000328  -0.000001  -0.000114   0.000001   0.000616  -0.003619
    11  H    0.001139  -0.000052  -0.000246   0.000018  -0.000790  -0.000081
    12  C   -0.000061   0.000000  -0.000002   0.000001  -0.000255  -0.015324
    13  H    0.000004  -0.000000   0.000000   0.000000   0.000065  -0.000896
    14  O    0.000002   0.000000   0.000000  -0.000000   0.000028   0.000129
    15  C    0.000668   0.000101   0.000139  -0.000147  -0.000754  -0.000343
    16  H    0.000297   0.000003   0.000031  -0.000150  -0.000499   0.000746
    17  H   -0.000094  -0.000007   0.000022   0.000034  -0.000035  -0.000001
    18  H    0.000567   0.000041   0.000596  -0.000474   0.000057   0.000036
    19  H   -0.000000  -0.000000  -0.000000   0.000000  -0.000037   0.000029
    20  C    0.029156   0.002557   0.006634  -0.000742   0.007636  -0.001813
    21  C    0.013992   0.011490   0.000996  -0.000670   0.001656  -0.000246
    22  C   -0.005734  -0.000971  -0.000255   0.000093  -0.000924   0.000725
    23  C   -0.002065  -0.000623  -0.000017   0.000030   0.000350  -0.001854
    24  H   -0.001465  -0.000405  -0.000027   0.000183  -0.000291   0.000350
    25  H   -0.000281  -0.001207  -0.000022   0.000016  -0.000039   0.000009
    26  H    0.000950  -0.000105  -0.000006  -0.000007  -0.000256  -0.000256
    27  H    0.000084   0.000565  -0.000057  -0.000000  -0.000097  -0.000009
    28  H    0.000269   0.000008   0.000001   0.000000   0.000046   0.000726
    29  H    0.000060   0.000025   0.000000  -0.000000  -0.000007   0.000059
               7          8          9         10         11         12
     1  C    0.000540  -0.000171   0.000129   0.000328   0.001139  -0.000061
     2  O   -0.000105   0.000000   0.000001  -0.000001  -0.000052   0.000000
     3  O   -0.000856   0.000004   0.000000  -0.000114  -0.000246  -0.000002
     4  O    0.000198  -0.000006   0.000233   0.000001   0.000018   0.000001
     5  C   -0.016023  -0.002080   0.000049   0.000616  -0.000790  -0.000255
     6  C   -0.015518   0.018057  -0.002425  -0.003619  -0.000081  -0.015324
     7  C    0.312915  -0.000549  -0.000013   0.032794  -0.001034   0.003901
     8  C   -0.000549  -0.189321   0.000741  -0.000830  -0.000018  -0.018699
     9  H   -0.000013   0.000741  -0.018077  -0.000023   0.000004   0.000010
    10  C    0.032794  -0.000830  -0.000023  -0.098021   0.000710   0.030658
    11  H   -0.001034  -0.000018   0.000004   0.000710  -0.011985  -0.000042
    12  C    0.003901  -0.018699   0.000010   0.030658  -0.000042   0.353114
    13  H   -0.000012   0.001929   0.000085   0.000018  -0.000000  -0.000718
    14  O   -0.009444   0.000082   0.000000  -0.056348  -0.000129  -0.010405
    15  C    0.000197  -0.000003   0.000009   0.000007   0.000014   0.000004
    16  H   -0.000213   0.000004  -0.000022  -0.000003  -0.000001  -0.000021
    17  H   -0.000000   0.000000   0.000002  -0.000000  -0.000000  -0.000000
    18  H   -0.000044   0.000000   0.000002  -0.000001  -0.000004  -0.000000
    19  H   -0.000033   0.000776   0.000003   0.000263   0.000002  -0.001050
    20  C   -0.000678   0.000021   0.000036  -0.000085  -0.000230   0.000010
    21  C   -0.000147   0.000015  -0.000059  -0.000006  -0.000017  -0.000000
    22  C   -0.000603  -0.000023   0.000019   0.000030   0.000115  -0.000022
    23  C    0.000197   0.000025   0.000044   0.000002  -0.000003   0.000039
    24  H    0.000010  -0.000008   0.000115   0.000001   0.000001  -0.000001
    25  H    0.000001  -0.000000   0.000000   0.000000   0.000000  -0.000000
    26  H    0.000562   0.000004  -0.000002  -0.000015  -0.000128   0.000020
    27  H    0.000025  -0.000000   0.000000   0.000001   0.000004   0.000000
    28  H   -0.000155  -0.000112  -0.000017  -0.000023  -0.000004  -0.000058
    29  H   -0.000008   0.000002  -0.000001  -0.000000  -0.000000  -0.000001
              13         14         15         16         17         18
     1  C    0.000004   0.000002   0.000668   0.000297  -0.000094   0.000567
     2  O   -0.000000   0.000000   0.000101   0.000003  -0.000007   0.000041
     3  O    0.000000   0.000000   0.000139   0.000031   0.000022   0.000596
     4  O    0.000000  -0.000000  -0.000147  -0.000150   0.000034  -0.000474
     5  C    0.000065   0.000028  -0.000754  -0.000499  -0.000035   0.000057
     6  C   -0.000896   0.000129  -0.000343   0.000746  -0.000001   0.000036
     7  C   -0.000012  -0.009444   0.000197  -0.000213  -0.000000  -0.000044
     8  C    0.001929   0.000082  -0.000003   0.000004   0.000000   0.000000
     9  H    0.000085   0.000000   0.000009  -0.000022   0.000002   0.000002
    10  C    0.000018  -0.056348   0.000007  -0.000003  -0.000000  -0.000001
    11  H   -0.000000  -0.000129   0.000014  -0.000001  -0.000000  -0.000004
    12  C   -0.000718  -0.010405   0.000004  -0.000021  -0.000000  -0.000000
    13  H    0.005694   0.000001   0.000000  -0.000000   0.000000  -0.000000
    14  O    0.000001   0.479315  -0.000000   0.000000  -0.000000   0.000000
    15  C    0.000000  -0.000000   0.002434  -0.000274  -0.000086  -0.001259
    16  H   -0.000000   0.000000  -0.000274  -0.000361   0.000036   0.000097
    17  H    0.000000  -0.000000  -0.000086   0.000036  -0.000419   0.000126
    18  H   -0.000000   0.000000  -0.001259   0.000097   0.000126   0.000783
    19  H    0.000080  -0.000124   0.000000  -0.000000   0.000000   0.000000
    20  C   -0.000000  -0.000000   0.000334   0.000020  -0.000019   0.000044
    21  C   -0.000000   0.000000   0.000025   0.000003  -0.000007   0.000001
    22  C    0.000000   0.000002  -0.000002  -0.000001   0.000000  -0.000001
    23  C    0.000000  -0.000000  -0.000002  -0.000000   0.000000  -0.000000
    24  H    0.000000   0.000000  -0.000023  -0.000002   0.000006  -0.000001
    25  H    0.000000  -0.000000  -0.000001  -0.000000   0.000000  -0.000000
    26  H   -0.000000  -0.000007   0.000000   0.000000  -0.000000   0.000000
    27  H    0.000000  -0.000000   0.000000   0.000000   0.000000   0.000000
    28  H   -0.000004   0.000000  -0.000000   0.000000  -0.000000   0.000000
    29  H   -0.000000   0.000000   0.000000  -0.000000  -0.000000  -0.000000
              19         20         21         22         23         24
     1  C   -0.000000   0.029156   0.013992  -0.005734  -0.002065  -0.001465
     2  O   -0.000000   0.002557   0.011490  -0.000971  -0.000623  -0.000405
     3  O   -0.000000   0.006634   0.000996  -0.000255  -0.000017  -0.000027
     4  O    0.000000  -0.000742  -0.000670   0.000093   0.000030   0.000183
     5  C   -0.000037   0.007636   0.001656  -0.000924   0.000350  -0.000291
     6  C    0.000029  -0.001813  -0.000246   0.000725  -0.001854   0.000350
     7  C   -0.000033  -0.000678  -0.000147  -0.000603   0.000197   0.000010
     8  C    0.000776   0.000021   0.000015  -0.000023   0.000025  -0.000008
     9  H    0.000003   0.000036  -0.000059   0.000019   0.000044   0.000115
    10  C    0.000263  -0.000085  -0.000006   0.000030   0.000002   0.000001
    11  H    0.000002  -0.000230  -0.000017   0.000115  -0.000003   0.000001
    12  C   -0.001050   0.000010  -0.000000  -0.000022   0.000039  -0.000001
    13  H    0.000080  -0.000000  -0.000000   0.000000   0.000000   0.000000
    14  O   -0.000124  -0.000000   0.000000   0.000002  -0.000000   0.000000
    15  C    0.000000   0.000334   0.000025  -0.000002  -0.000002  -0.000023
    16  H   -0.000000   0.000020   0.000003  -0.000001  -0.000000  -0.000002
    17  H    0.000000  -0.000019  -0.000007   0.000000   0.000000   0.000006
    18  H    0.000000   0.000044   0.000001  -0.000001  -0.000000  -0.000001
    19  H   -0.015138  -0.000000  -0.000000   0.000000  -0.000000   0.000000
    20  C   -0.000000   0.010396  -0.021270   0.000509   0.000578   0.001540
    21  C   -0.000000  -0.021270  -0.051282  -0.000659   0.006706   0.003291
    22  C    0.000000   0.000509  -0.000659   0.010737  -0.002648  -0.000262
    23  C   -0.000000   0.000578   0.006706  -0.002648   0.004079  -0.001076
    24  H    0.000000   0.001540   0.003291  -0.000262  -0.001076  -0.003306
    25  H    0.000000   0.001045   0.000510  -0.000195  -0.001034  -0.000852
    26  H   -0.000000  -0.000309  -0.000186  -0.000350   0.000435   0.000009
    27  H   -0.000000  -0.000057   0.000090  -0.001732  -0.000461  -0.000017
    28  H    0.000000  -0.000401  -0.000275   0.000895   0.000521   0.000181
    29  H   -0.000000   0.000152  -0.000668   0.000028  -0.000169   0.000083
              25         26         27         28         29
     1  C   -0.000281   0.000950   0.000084   0.000269   0.000060
     2  O   -0.001207  -0.000105   0.000565   0.000008   0.000025
     3  O   -0.000022  -0.000006  -0.000057   0.000001   0.000000
     4  O    0.000016  -0.000007  -0.000000   0.000000  -0.000000
     5  C   -0.000039  -0.000256  -0.000097   0.000046  -0.000007
     6  C    0.000009  -0.000256  -0.000009   0.000726   0.000059
     7  C    0.000001   0.000562   0.000025  -0.000155  -0.000008
     8  C   -0.000000   0.000004  -0.000000  -0.000112   0.000002
     9  H    0.000000  -0.000002   0.000000  -0.000017  -0.000001
    10  C    0.000000  -0.000015   0.000001  -0.000023  -0.000000
    11  H    0.000000  -0.000128   0.000004  -0.000004  -0.000000
    12  C   -0.000000   0.000020   0.000000  -0.000058  -0.000001
    13  H    0.000000  -0.000000   0.000000  -0.000004  -0.000000
    14  O   -0.000000  -0.000007  -0.000000   0.000000   0.000000
    15  C   -0.000001   0.000000   0.000000  -0.000000   0.000000
    16  H   -0.000000   0.000000   0.000000   0.000000  -0.000000
    17  H    0.000000  -0.000000   0.000000  -0.000000  -0.000000
    18  H   -0.000000   0.000000   0.000000   0.000000  -0.000000
    19  H    0.000000  -0.000000  -0.000000   0.000000  -0.000000
    20  C    0.001045  -0.000309  -0.000057  -0.000401   0.000152
    21  C    0.000510  -0.000186   0.000090  -0.000275  -0.000668
    22  C   -0.000195  -0.000350  -0.001732   0.000895   0.000028
    23  C   -0.001034   0.000435  -0.000461   0.000521  -0.000169
    24  H   -0.000852   0.000009  -0.000017   0.000181   0.000083
    25  H    0.003394   0.000009   0.000133   0.000033   0.000145
    26  H    0.000009  -0.000924   0.000282  -0.000003  -0.000092
    27  H    0.000133   0.000282   0.002847  -0.000034  -0.000053
    28  H    0.000033  -0.000003  -0.000034  -0.003696   0.000032
    29  H    0.000145  -0.000092  -0.000053   0.000032   0.000793
 Mulliken charges and spin densities:
               1          2
     1  C    0.524780  -0.003410
     2  O   -0.485022  -0.746930
     3  O   -0.699842  -0.236644
     4  O   -0.543013   0.000279
     5  C    0.060228  -0.187609
     6  C   -0.196441   0.448743
     7  C   -0.283151   0.305905
     8  C   -0.191948  -0.190160
     9  H    0.204524  -0.019156
    10  C    0.408633  -0.093660
    11  H    0.181936  -0.012756
    12  C   -0.226454   0.341100
    13  H    0.207975   0.006248
    14  O   -0.539312   0.403102
    15  C   -0.248743   0.001039
    16  H    0.116958  -0.000309
    17  H    0.155173  -0.000444
    18  H    0.145839   0.000568
    19  H    0.200730  -0.015229
    20  C    0.362983   0.035064
    21  C   -0.372219  -0.036717
    22  C   -0.368824  -0.001229
    23  C   -0.351378   0.003054
    24  H    0.165341  -0.001967
    25  H    0.156173   0.001664
    26  H    0.146511  -0.000373
    27  H    0.148173   0.001515
    28  H    0.160353  -0.002070
    29  H    0.160038   0.000382
 Sum of Mulliken charges =  -1.00000   0.00000
 Mulliken charges and spin densities with hydrogens summed into heavy atoms:
               1          2
     1  C    0.524780  -0.003410
     2  O   -0.485022  -0.746930
     3  O   -0.699842  -0.236644
     4  O   -0.543013   0.000279
     5  C    0.060228  -0.187609
     6  C    0.008083   0.429588
     7  C   -0.101215   0.293148
     8  C    0.016026  -0.183912
    10  C    0.408633  -0.093660
    12  C   -0.025724   0.325871
    14  O   -0.539312   0.403102
    15  C    0.169228   0.000855
[...]
 0000446,0.00000329,0.00158343,-0.01437098,0.00254756,-0.12048863,-0.04
 931678,-0.01004597,-0.07454234,0.01789029,0.00201331,0.55404802,0.0023
 7117,-0.00503720,0.00394196,-0.00084215,-0.00431869,0.00031653,0.00154
 786,0.00028407,-0.00238991,-0.00026399,0.00035646,-0.00059322,0.001015
 58,-0.00008762,0.00005617,0.00109074,-0.00071330,-0.00018389,-0.000677
 41,0.00000083,-0.00034480,-0.00037240,-0.00022832,-0.00015911,-0.00008
 727,0.00006594,-0.00007961,0.00013487,0.00000522,0.00006028,-0.0002014
 2,-0.00006793,-0.00005141,-0.00004856,0.00001900,0.00015756,0.00000888
 ,0.00000410,-0.00001804,0.00002624,0.00002008,-0.00002280,0.00002821,0
 .00010332,0.00032027,-0.00000114,0.00001407,-0.00000564,-0.00003397,0.
 00008849,-0.00004720,0.00003179,0.00009023,0.00001492,0.00001289,0.000
 00427,-0.00000420,-0.02914244,-0.05114907,0.03322765,-0.05034940,-0.13
 635900,-0.03121865,0.01242740,-0.07040823,0.03926644,-0.04838312,0.592
 74572,-0.00091664,0.00300494,-0.00439738,-0.00086483,0.00020582,0.0022
 4874,-0.00166618,0.00029319,0.00141160,0.00051927,-0.00104939,0.000704
 80,-0.00027323,-0.00056022,0.00023445,0.00010141,-0.00041128,0.0001853
 6,0.00027721,-0.00005525,0.00008982,-0.00025876,0.00017284,-0.00004742
 ,-0.00010079,-0.00001533,-0.00012355,-0.00019738,-0.00002598,0.0000871
 7,0.00014146,0.00003167,0.00004865,0.00015836,0.00006262,0.00006644,-0
 .00000482,-0.00001881,0.00000903,0.00002293,-0.00000089,-0.00003892,0.
 00006941,0.00005320,-0.00012619,0.00003641,-0.00005730,0.00000320,0.00
 001478,-0.00006934,0.00003252,-0.00002297,-0.00014591,0.00000869,-0.00
 000975,-0.00000896,-0.00000421,0.00845251,0.02360211,-0.01591983,-0.01
 125222,-0.03661288,-0.05936166,0.00574266,0.04432378,-0.17294527,-0.08
 332697,-0.05495473,0.42216263,0.00049976,-0.00013053,0.00067312,0.0003
 6111,-0.00030587,-0.00010115,0.00017866,-0.00031933,-0.00013685,-0.000
 15986,0.00039709,-0.00016265,0.00015431,0.00010802,0.00006767,-0.00038
 757,0.00009849,-0.00028888,-0.00016968,-0.00004432,-0.00010621,-0.0000
 4403,-0.00010992,0.00002518,-0.00088634,0.00043498,0.00036490,0.000045
 49,0.00000961,0.00003218,-0.00001060,-0.00001095,0.00000994,0.00005620
 ,0.00001314,0.00002841,0.00000731,0.00000108,-0.00000848,0.00001076,0.
 00000513,-0.00001062,-0.00011234,-0.00000482,0.00007421,0.00001710,0.0
 0000742,-0.00000419,0.00000094,-0.00000561,-0.00000330,0.00000486,-0.0
 0000672,0.00000352,0.00000826,0.00001232,0.00000876,-0.00093040,-0.002
 64357,-0.00691523,-0.06040515,0.02511649,0.04849823,-0.00230908,-0.000
 69632,-0.00278761,0.00565610,-0.00669967,-0.01489045,0.06198431,0.0013
 2202,-0.00131880,0.00107821,-0.00014063,0.00171003,-0.00132696,0.00064
 506,0.00110386,-0.00199498,0.00050403,-0.00108408,0.00021340,-0.000208
 79,0.00019538,-0.00031442,0.00021999,-0.00018657,0.00006399,0.00022585
 ,0.00010161,0.00007272,0.00008018,0.00003371,0.00001780,0.00053497,0.0
 0006071,-0.00007710,-0.00012217,0.00002851,-0.00005640,-0.00008839,-0.
 00006632,-0.00005623,0.00001289,0.00001509,-0.00003591,0.00001108,-0.0
 0000665,-0.00000700,0.00004755,0.00000216,0.00004514,-0.00008293,-0.00
 021901,-0.00027650,-0.00008893,0.00011235,0.00000064,0.00001741,-0.000
 01371,-0.00000077,-0.00005192,0.00018832,-0.00000943,0.00000756,-0.000
 00821,-0.00000790,-0.00819564,0.00849603,0.01337635,0.02509865,-0.1185
 5435,-0.11636864,-0.00071089,-0.00041129,-0.00051619,0.00995207,-0.007
 39045,-0.01501048,-0.03012722,0.12033849,-0.00011424,-0.00005761,-0.00
 372111,0.00175458,-0.00178704,0.00121335,-0.00187832,-0.00061885,0.002
 42839,0.00064997,-0.00005340,0.00190929,-0.00006576,-0.00008204,0.0004
 5855,-0.00014768,-0.00012879,-0.00077248,-0.00029340,-0.00008600,0.000
 03179,-0.00011931,0.00000270,0.00023394,-0.00000165,-0.00002001,0.0005
 0342,0.00021841,-0.00006645,-0.00003900,0.00018122,0.00012821,0.000106
 03,0.00000221,0.00001910,0.00012581,-0.00002779,-0.00001465,0.00001308
 ,-0.00006150,0.00000106,0.00000522,0.00018809,0.00053996,0.00079518,0.
 00008884,-0.00011654,0.00000794,-0.00006818,0.00010387,-0.00000608,0.0
 0007734,-0.00042237,0.00005976,0.00000601,-0.00000339,0.00002792,0.004
 55264,-0.01195914,-0.01693990,0.05068866,-0.11772142,-0.24258148,-0.00
 430129,0.00089092,-0.00352915,-0.00098419,0.00177593,-0.00013501,-0.04
 962042,0.12980638,0.25811910,0.00119411,-0.00142916,-0.00107453,0.0004
 5241,-0.00095184,0.00129654,-0.00097725,0.00109110,-0.00066931,-0.0000
 3417,0.00054080,0.00027237,0.00009585,0.00001805,0.00017761,-0.0000787
 9,-0.00004741,0.00013484,-0.00000097,-0.00003652,0.00010861,-0.0000090
 2,0.00002523,0.00000229,-0.00002645,-0.00000392,-0.00011759,0.00008848
 ,0.00000480,-0.00003416,0.00007890,0.00004423,0.00000442,-0.00003041,-
 0.00000474,0.00002405,-0.00002250,-0.00000904,0.00002042,-0.00009124,-
 0.00001037,-0.00003043,0.00017850,-0.00032807,-0.00003887,-0.00006787,
 0.00004857,0.00000400,-0.00000126,0.00005167,0.00005192,-0.00005219,-0
 .00000978,-0.00006743,-0.00001503,-0.00000748,-0.00000270,-0.00351160,
 0.00162906,-0.00049304,-0.29478034,0.07344948,0.00564191,0.00000457,-0
 .00023178,-0.00010578,-0.01592177,0.00532047,0.00171470,-0.00437123,0.
 00122013,-0.00043751,0.31739841,-0.00147430,0.00399748,-0.00126463,0.0
 0089088,0.00043259,-0.00078910,-0.00079737,-0.00233239,0.00333827,0.00
 026674,-0.00040574,0.00063182,-0.00040946,-0.00081037,0.00048125,-0.00
 001417,-0.00000221,-0.00031508,0.00012096,0.00009560,-0.00003131,-0.00
 006493,0.00005087,0.00005396,0.00004316,-0.00006889,0.00015030,-0.0000
 3554,0.00001572,0.00010105,0.00010992,0.00002870,0.00005151,0.00005877
 ,0.00001694,0.00001331,-0.00000003,0.00000209,-0.00000585,0.00004869,-
 0.00000439,-0.00000678,-0.00012751,0.00034840,-0.00000715,0.00006743,-
 0.00005451,0.00000446,0.00000037,-0.00006877,-0.00000561,0.00004342,-0
 .00012784,0.00008208,0.00000860,-0.00000392,0.00000795,0.01894552,-0.0
 0893897,-0.00193334,0.07567319,-0.06623763,-0.00457134,0.00005818,-0.0
 0085052,0.00014875,-0.02807831,0.00776933,0.00117861,0.01535556,-0.003
 67947,0.00089376,-0.07828263,0.07116607,0.00139842,-0.00536925,0.00071
 018,-0.00092846,0.00097382,0.00120653,0.00114595,0.00254541,-0.0033003
 5,0.00013431,-0.00037822,-0.00033443,0.00002828,0.00090124,-0.00063033
 ,-0.00000827,-0.00005979,-0.00007083,0.00006428,-0.00002904,-0.0000011
 1,0.00015369,-0.00004032,0.00006555,0.00001860,0.00005459,0.00017211,-
 0.00007643,-0.00006570,-0.00015138,-0.00016225,-0.00003172,-0.00005156
 ,-0.00001410,0.00001443,-0.00003435,0.00001475,-0.00000077,-0.00000809
 ,0.00004537,0.00002184,0.00008272,-0.00012694,0.00019453,0.00020675,0.
 00002311,-0.00000954,-0.00001486,-0.00001080,0.00001129,-0.00003776,0.
 00001257,0.00000974,0.00002858,0.00001163,0.00000206,0.00000172,-0.026
 18558,0.00841515,0.00281463,0.00281894,-0.00353869,-0.04999045,0.00111
 625,-0.00031956,-0.00058605,-0.00228019,0.00075345,-0.00043744,0.02702
 043,-0.00716536,0.00184518,-0.00392202,0.00340359,0.04833131,-0.001695
 75,0.00074990,0.00176302,-0.00199839,-0.00185356,-0.00047598,0.0012815
 3,-0.00005764,0.00020061,0.00019679,-0.00047830,-0.00044840,0.00017301
 ,0.00130646,0.00133834,0.00070946,0.00023543,-0.00086300,-0.00078689,0
 .00050081,-0.00017725,-0.00054261,-0.00011772,-0.00020848,-0.00000491,
 0.00000770,0.00001920,0.00009761,0.00007728,0.00023397,-0.00007536,-0.
 00000145,0.00002982,0.00020341,-0.00000152,0.00019380,0.00000705,0.000
 00964,0.00000052,-0.00005386,0.00000412,-0.00019060,-0.00011120,0.0002
 0569,-0.00000582,0.00006569,-0.00006145,-0.00001114,0.00001466,-0.0000
 4646,-0.00004409,0.00002621,0.00003184,0.00004883,0.00000390,-0.000007
 45,-0.00000780,-0.00420126,0.00439265,-0.00237248,0.00038232,-0.002163
 18,-0.00157015,-0.25795868,0.00299813,-0.11154621,0.00503413,-0.000375
 05,0.00292856,-0.00028696,0.00047118,-0.00046004,-0.00004363,0.0002000
 2,0.00012762,0.27579899,0.00007414,-0.00065505,0.00293089,-0.00367324,
 -0.00287270,-0.00041135,0.00178264,0.00075119,-0.00070104,-0.00002047,
 0.00046273,-0.00031473,0.00039063,-0.00038443,-0.00103660,0.00007071,0
 .00017805,0.00001544,0.00070120,-0.00041037,-0.00002630,0.00007281,-0.
 00007583,-0.00001700,-0.00002718,0.00000888,0.00002081,0.00012786,0.00
 012512,-0.00001939,-0.00006558,-0.00028570,0.00001962,-0.00003341,-0.0
 0001826,0.00000752,0.00001217,-0.00000697,0.00000006,-0.00006460,-0.00
 002129,-0.00001777,-0.00001778,0.00011606,0.00015094,0.00001489,-0.000
 00976,-0.00001692,-0.00000349,0.00002374,-0.00002268,-0.00000078,0.000
 05260,0.00002830,-0.00000565,-0.00000008,0.00000405,-0.01983968,0.0123
 1460,-0.00822577,-0.00088033,-0.00193152,-0.00252685,0.00147565,-0.051
 40765,0.00295047,0.01258714,-0.00183338,0.00136659,-0.00010747,0.00072
 056,-0.00121175,-0.00002437,0.00019480,-0.00020004,-0.00548043,0.04442
 769,-0.00133903,0.00010409,0.00140798,-0.00077964,0.00135873,-0.001010
 27,0.00115348,-0.00009970,0.00016945,0.00027612,-0.00025425,-0.0002599
 3,0.00038015,-0.00021946,0.00002263,0.00036904,0.00020585,-0.00049026,
 -0.00009586,0.00010441,0.00002742,-0.00029163,-0.00007430,-0.00010031,
 -0.00002285,0.00001505,0.00004352,0.00021687,0.00010726,0.00012482,-0.
 00010198,0.00000413,0.00005102,0.00007061,-0.00000994,0.00012344,0.000
 00079,-0.00000458,0.00001000,-0.00011610,-0.00002077,-0.00015333,-0.00
 010746,0.00011820,0.00001777,0.00004776,-0.00003413,-0.00001561,0.0000
 0528,-0.00003029,-0.00002481,0.00002468,0.00003105,0.00003996,-0.00000
 648,-0.00000675,0.00000060,-0.00267487,-0.00076287,-0.00498344,-0.0012
 3321,-0.00209140,-0.00511650,-0.11120433,0.00401977,-0.10897463,-0.022
 01359,-0.00127460,-0.00662900,-0.00121936,-0.00079159,-0.00080325,-0.0
 0052712,-0.00005795,-0.00016861,0.12299994,-0.00093785,0.11581584,-0.0
 0103441,-0.00021861,-0.00192855,0.00220119,0.00083950,-0.00013370,-0.0
 0046628,0.00042672,0.00044769,0.00035540,-0.00048318,0.00013991,-0.000
 00355,0.00010322,0.00057615,0.00022924,0.00008058,-0.00049307,-0.00027
 431,0.00020456,0.00017942,-0.00031369,-0.00003450,-0.00005075,0.000020
 76,-0.00001362,0.00000965,0.00030032,0.00011160,0.00010150,0.00008337,
 -0.00001884,0.00004334,0.00006022,-0.00000694,0.00014904,-0.00001998,-
 0.00000640,0.00002038,-0.00016504,-0.00002976,-0.00015229,0.00007375,-
 0.00009098,-0.00013857,0.00001020,-0.00002505,-0.00000298,0.00001375,-
 0.00002921,0.00001957,-0.00001397,-0.00004112,-0.00000661,-0.00001315,
 -0.00000954,0.00000407,0.00626551,-0.00750513,-0.00582879,-0.00061116,
 0.00083274,0.00076608,-0.17904636,0.08646645,0.10249529,-0.00125696,0.
 00027461,-0.00060903,0.00015465,0.00010836,0.00037255,0.00001799,-0.00
 006165,-0.00021342,-0.01700924,0.01294680,0.01649085,0.18856972,-0.004
 17754,0.00221500,-0.00708294,0.00182155,0.00508363,0.00224363,-0.00110
 191,-0.00005788,0.00239676,0.00120722,-0.00301852,0.00030836,-0.000673
 99,-0.00085644,0.00079351,0.00004684,-0.00006091,-0.00003616,0.0001459
 8,0.00013791,-0.00017379,-0.00009635,0.00003505,-0.00001021,-0.0000364
 4,-0.00002271,0.00002039,-0.00008401,0.00004370,0.00016423,0.00009580,
 0.00001370,0.00001666,0.00009050,0.00001574,-0.00000792,0.00000696,0.0
 0000963,-0.00001230,0.00008509,0.00000682,-0.00002044,-0.00036974,0.00
 031360,-0.00065384,0.00014774,-0.00011342,-0.00000558,0.00005115,-0.00
 030838,-0.00001341,0.00001850,-0.00013318,0.00007907,0.00001116,-0.000
 00286,-0.00000016,0.02446705,-0.01922123,-0.01573456,-0.00077958,0.000
 06967,0.00109187,0.08694657,-0.09907447,-0.07136778,-0.01363494,0.0077
 8859,0.01081573,-0.00004905,-0.00009309,0.00004432,-0.00009706,0.00022
 028,-0.00031372,-0.00050158,0.00015902,0.00040536,-0.09316450,0.106028
 26,-0.00113634,0.00142186,-0.00160649,-0.00067013,0.00141886,0.0010658
 5,-0.00008427,0.00000253,0.00044381,0.00034877,-0.00073614,0.00007121,
 -0.00017752,0.00003897,0.00054474,0.00018853,0.00011604,-0.00030998,-0
 .00008177,0.00011266,-0.00005814,-0.00017392,-0.00006201,-0.00003815,0
 .00000118,0.00000034,0.00003782,0.00008507,0.00006072,0.00010834,0.000
 01560,-0.00002619,0.00000647,0.00005353,0.00000017,0.00005627,0.000000
 81,0.00000188,-0.00000240,-0.00001347,-0.00000257,-0.00006236,-0.00013
 257,0.00017811,-0.00014241,0.00005221,-0.00004403,-0.00000498,0.000017
 56,-0.00008177,-0.00001097,0.00000877,-0.00002620,0.00003503,0.0000040
 1,-0.00000180,0.00000090,0.00556049,-0.00317141,-0.00289397,-0.0007206
 7,0.00123814,0.00010620,0.10208013,-0.07058213,-0.13329616,0.02001055,
 -0.01236328,-0.01520534,-0.00039812,-0.00029415,0.00007594,-0.00035680
 ,-0.00025058,-0.00038618,-0.01095469,0.00782398,0.01066011,-0.11257434
 ,0.07472124,0.14321698,-0.00048830,-0.00068917,0.00166566,-0.00015186,
 0.00035699,-0.00023566,0.00091057,-0.00026008,-0.00050543,0.00006644,-
 0.00018919,-0.00029407,-0.00057057,0.00099277,-0.00135524,-0.00043142,
 0.00068764,0.00063071,0.00068424,0.00009621,0.00048766,-0.00012739,0.0
 0027008,-0.00000371,-0.00011654,0.00006667,-0.00009882,-0.00039743,-0.
 00007858,-0.00023070,-0.00008028,-0.00004335,-0.00002799,0.00010366,-0
 .00005794,-0.00001281,0.00003224,-0.00001656,-0.00000267,0.00013321,0.
 00000973,0.00013786,-0.00007372,0.00013017,0.00000904,0.00002744,-0.00
 003364,-0.00000343,0.00000132,-0.00001820,-0.00002839,0.00001597,0.000
 03597,0.00002875,-0.00000384,0.00000437,-0.00000558,-0.00069761,0.0000
 5034,-0.00028566,-0.01713201,0.00278858,0.00709192,0.00503675,-0.00047
 397,-0.00232687,-0.26563333,0.01997160,0.10762721,0.00152783,0.0009987
 5,-0.00029680,-0.00134659,-0.00372190,0.00007763,0.00067618,-0.0002395
 9,0.00045349,0.00070913,-0.00004478,-0.00122831,0.28619067,-0.00053137
 ,-0.00086075,0.00176062,-0.00000217,0.00037036,-0.00050273,0.00084848,
 -0.00024687,-0.00044759,0.00003533,-0.00002484,-0.00031425,0.00053401,
 -0.00079351,0.00019576,0.00082270,-0.00096866,-0.00011692,-0.00007875,
 0.00002731,0.00005865,0.00032865,-0.00001023,-0.00003769,-0.00006957,-
 0.00021399,-0.00014816,0.00014959,0.00001864,0.00000494,-0.00009209,-0
 .00004114,-0.00003861,-0.00003357,-0.00000006,-0.00010248,-0.00001320,
 0.00001576,0.00001623,-0.00013518,-0.00001744,-0.00009224,-0.00005159,
 0.00003879,0.00002221,0.00002280,-0.00000762,-0.00000911,0.00000628,-0
 .00000103,-0.00002107,0.00001205,0.00004959,0.00001517,-0.00001639,-0.
 00000590,-0.00001045,0.00013845,-0.00020248,-0.00016683,-0.02051130,0.
 00254743,0.00957866,-0.00602904,0.00023091,0.00207305,0.02043342,-0.05
 346873,-0.00740254,0.00077354,0.00192867,-0.00038017,-0.00229416,-0.00
 303810,0.00048237,0.00024025,0.00096351,-0.00002347,-0.00050171,-0.000
 38870,0.00029149,-0.02119150,0.05486556,0.00068307,0.00035864,-0.00033
 071,0.00069438,0.00083920,0.00027860,-0.00029739,0.00010194,0.00022120
 ,-0.00012196,0.00020239,0.00012968,0.00002595,0.00006565,0.00054194,0.
 00020254,-0.00005449,-0.00010807,-0.00035919,-0.00009793,-0.00028259,-
 0.00002777,-0.00014666,-0.00000764,-0.00000189,-0.00010300,0.00000074,
 0.00017690,0.00005613,0.00009779,0.00004160,0.00000224,0.00000870,-0.0
 0002855,-0.00000529,-0.00000597,-0.00000862,0.00000967,-0.00000922,-0.
 00003562,-0.00000941,-0.00005441,0.00003476,-0.00001963,0.00000931,-0.
 00001630,0.00001274,0.00000326,-0.00000602,0.00001254,0.00001081,-0.00
 000411,-0.00000692,-0.00001000,0.00000662,0.00000084,0.00000426,-0.001
 02616,-0.00106973,-0.00139206,-0.01401766,0.00187192,0.00589922,0.0284
 1899,-0.00470435,-0.01372615,0.10758748,-0.00739257,-0.09748841,0.0008
 0725,0.00104439,0.00071884,-0.00221049,-0.00251517,-0.00012589,-0.0005
 8282,-0.00155009,0.00245382,0.00055890,0.00396309,-0.00492775,-0.11570
 813,0.00914408,0.10548593,-0.00022277,-0.00123902,0.00171387,0.0003049
 2,0.00033498,-0.00023043,0.00105939,-0.00023128,-0.00036798,0.00005945
 ,-0.00011133,-0.00026417,-0.00024040,0.00026727,-0.00066538,-0.0001928
 0,0.00015669,0.00023040,0.00033312,0.00008517,0.00025053,0.00020401,0.
 00012518,-0.00001514,-0.00004358,-0.00002708,-0.00004198,-0.00014480,-
 0.00003923,-0.00010460,-0.00009182,-0.00004290,-0.00001996,0.00000458,
 -0.00001109,-0.00006269,0.00001247,-0.00000475,0.00000366,0.00002405,0
 .00000221,0.00004512,-0.00006894,0.00014487,0.00008226,0.00002954,-0.0
 0002547,-0.00000562,-0.00000390,-0.00000528,-0.00002967,0.00002259,0.0
 0002442,0.00003159,-0.00000653,0.00000088,-0.00000582,-0.00193818,-0.0
 0282689,0.00062736,0.00811347,-0.01744270,0.00271290,-0.00230444,-0.00
 040452,0.00256647,-0.08765119,0.09321567,-0.01341287,-0.00059438,-0.00
 166021,0.00009758,0.00187308,0.00117638,-0.00028338,0.00009778,0.00022
 743,-0.00075558,0.00116290,-0.00033064,0.00027570,-0.00886479,0.027206
 03,-0.00478575,0.08906720,-0.00022602,-0.00080797,0.00222588,-0.000114
 25,-0.00001472,-0.00044147,0.00132752,-0.00054483,-0.00062028,0.000130
 87,-0.00064688,-0.00048729,-0.00012144,0.00018683,-0.00024560,0.000197
 65,-0.00005944,0.00003562,0.00010131,0.00002042,-0.00014941,-0.0000145
 5,-0.00003748,-0.00003610,-0.00005186,0.00004240,0.00006439,-0.0001724
 2,-0.00001509,0.00000387,-0.00013972,-0.00006321,-0.00003872,0.0000535
 0,0.00001559,-0.00002342,0.00003200,0.00000572,-0.00002786,0.00013508,
 0.00002205,0.00005999,-0.00021252,0.00039257,0.00006313,0.00008798,-0.
 00006227,-0.00000825,0.00000219,-0.00006417,-0.00006473,0.00004367,0.0
 0002021,0.00007165,0.00001935,0.00000782,-0.00000274,-0.00263336,-0.00
 167288,0.00152252,0.00835928,-0.01376754,0.00270885,0.00006406,-0.0033
 3968,0.00005402,0.09228442,-0.27829779,0.03128817,-0.00107151,-0.00200
 344,0.00052339,0.00032474,0.00228486,-0.00026180,-0.00028532,-0.000585
 53,0.00022000,-0.00015439,0.00121119,0.00021526,0.00059855,-0.00076647
 ,-0.00001022,-0.09856481,0.29853974,0.00027062,0.00015706,-0.00031898,
 0.00121808,0.00146859,0.00031618,-0.00005506,0.00024150,0.00033235,-0.
 00000577,0.00020407,0.00023115,0.00023522,-0.00007577,0.00026382,0.000
 04968,-0.00002554,-0.00018587,-0.00014596,-0.00006064,-0.00012248,-0.0
 0010337,-0.00006251,0.00001553,0.00000481,0.00001615,0.00005030,0.0001
 0541,0.00001443,0.00004478,0.00004135,0.00002161,0.00002215,-0.0000079
 5,-0.00000042,0.00004469,-0.00000874,-0.00000250,0.00000340,-0.0000403
 6,-0.00000258,-0.00003403,0.00005932,-0.00003817,0.00007644,-0.0000139
 6,0.00001048,0.00000114,-0.00000789,0.00002948,0.00001711,-0.00000179,
 -0.00002805,-0.00000709,-0.00000032,-0.00000102,0.00000398,-0.00089925
 ,0.00006148,-0.00405287,0.00774792,-0.00857820,0.00034673,-0.01154156,
 0.02581557,0.00101796,-0.01322061,0.03121250,-0.05443348,-0.00096026,-
 0.00140900,-0.00015125,0.00063408,0.00121323,0.00086441,0.00003473,0.0
 0191746,-0.00223845,-0.00024230,-0.00163144,0.00251558,0.00444035,-0.0
 1382894,0.00260477,0.01241356,-0.03663885,0.05277203\\0.00000330,0.000
 00955,-0.00001107,-0.00000100,-0.00000687,0.00000186,-0.00000531,-0.00
 000114,0.00000373,-0.00000429,-0.00000360,0.00000133,0.00000003,-0.000
 00171,0.00000343,0.00000117,-0.00000066,0.00000105,-0.00000201,0.00000
 109,0.00000202,0.00000193,0.00000087,0.00000318,0.00000204,0.00000087,
 0.00000052,-0.00000115,0.00000060,0.00000389,-0.00000219,0.00000057,0.
 00000178,0.00000042,0.00000073,0.00000454,0.00000322,0.00000075,0.0000
 0340,-0.00000221,0.00000065,0.00000507,0.00000123,-0.00000045,-0.00000
 260,0.00000199,0.00000047,0.00000232,0.00000404,-0.00000001,-0.0000038
 1,-0.00000284,0.00000031,-0.00000122,0.00000074,0.00000074,0.00000574,
 0.00000393,-0.00000040,-0.00001031,0.00000302,-0.00000062,0.00000078,0
 .00000075,-0.00000255,-0.00000274,-0.00000162,0.00000165,-0.00000239,-
 0.00000056,0.00000005,-0.00000402,0.00000063,0.00000109,-0.00000200,-0
 .00000414,0.00000142,0.00000282,-0.00000486,-0.00000089,-0.00000504,0.
 00000117,-0.00000300,0.00000090,0.00000258,0.00000049,-0.00000316\\\@


     "IF I COULD JUST GET IT ON PAPER"
 LIFE AND INK, THEY RUN OUT AT THE SAME TIME,
 OR SO SAID MY OLD FRIEND THE SQUID.
     -- JIMMY BUFFETT, 1981
 Job cpu time:       0 days  1 hours  9 minutes 10.8 seconds.
 Elapsed time:       0 days  0 hours  5 minutes 46.3 seconds.
 File lengths (MBytes):  RWF=    575 Int=      0 D2E=      0 Chk=     45 Scr=      1
 Normal termination of Gaussian 16 at Sun Feb 12 18:35:09 2023.
