 Entering Gaussian System, Link 0=g16
 Input=TSoo.gjf
 Output=TSoo.log
 Initial command:
 /home/zhouoh/g16/l1.exe "/home/zhouoh/g16/scratch/Gau-2099.inp" -scrdir="/home/zhouoh/g16/scratch/"
 Entering Link 1 = /home/zhouoh/g16/l1.exe PID=      2105.
  
 Copyright (c) 1988,1990,1992,1993,1995,1998,2003,2009,2016,
            Gaussian, Inc.  All Rights Reserved.
  
 This is part of the Gaussian(R) 16 program.  It is based on
 the Gaussian(R) 09 system (copyright 2009, Gaussian, Inc.),
 the Gaussian(R) 03 system (copyright 2003, Gaussian, Inc.),
 the Gaussian(R) 98 system (copyright 1998, Gaussian, Inc.),
 the Gaussian(R) 94 system (copyright 1995, Gaussian, Inc.),
 the Gaussian 92(TM) system (copyright 1992, Gaussian, Inc.),
 the Gaussian 90(TM) system (copyright 1990, Gaussian, Inc.),
 the Gaussian 88(TM) system (copyright 1988, Gaussian, Inc.),
 the Gaussian 86(TM) system (copyright 1986, Carnegie Mellon
 University), and the Gaussian 82(TM) system (copyright 1983,
 Carnegie Mellon University). Gaussian is a federally registered
 trademark of Gaussian, Inc.
  
 This software contains proprietary and confidential information,
 including trade secrets, belonging to Gaussian, Inc.
  
 This software is provided under written license and may be
 used, copied, transmitted, or stored only in accord with that
 written license.
  
 The following legend is applicable only to US Government
 contracts under FAR:
  
                    RESTRICTED RIGHTS LEGEND
  
 Use, reproduction and disclosure by the US Government is
 subject to restrictions as set forth in subparagraphs (a)
 and (c) of the Commercial Computer Software - Restricted
 Rights clause in FAR 52.227-19.
  
 Gaussian, Inc.
 340 Quinnipiac St., Bldg. 40, Wallingford CT 06492
  
  
 ---------------------------------------------------------------
 Warning -- This program may not be used in any manner that
 competes with the business of Gaussian, Inc. or will provide
 assistance to any competitor of Gaussian, Inc.  The licensee
 of this program is prohibited from giving any competitor of
 Gaussian, Inc. access to this program.  By using this program,
 the user acknowledges that Gaussian, Inc. is engaged in the
 business of creating and licensing software in the field of
 computational chemistry and represents and warrants to the
 licensee that it is not a competitor of Gaussian, Inc. and that
 it will not use this program in any manner prohibited above.
 ---------------------------------------------------------------
  

 Cite this work as:
 Gaussian 16, Revision A.03,
 M. J. Frisch, G. W. Trucks, H. B. Schlegel, G. E. Scuseria, 
 M. A. Robb, J. R. Cheeseman, G. Scalmani, V. Barone, 
 G. A. Petersson, H. Nakatsuji, X. Li, M. Caricato, A. V. Marenich, 
 J. Bloino, B. G. Janesko, R. Gomperts, B. Mennucci, H. P. Hratchian, 
 J. V. Ortiz, A. F. Izmaylov, J. L. Sonnenberg, D. Williams-Young, 
 F. Ding, F. Lipparini, F. Egidi, J. Goings, B. Peng, A. Petrone, 
 T. Henderson, D. Ranasinghe, V. G. Zakrzewski, J. Gao, N. Rega, 
 G. Zheng, W. Liang, M. Hada, M. Ehara, K. Toyota, R. Fukuda, 
 J. Hasegawa, M. Ishida, T. Nakajima, Y. Honda, O. Kitao, H. Nakai, 
 T. Vreven, K. Throssell, J. A. Montgomery, Jr., J. E. Peralta, 
 F. Ogliaro, M. J. Bearpark, J. J. Heyd, E. N. Brothers, K. N. Kudin, 
 V. N. Staroverov, T. A. Keith, R. Kobayashi, J. Normand, 
 K. Raghavachari, A. P. Rendell, J. C. Burant, S. S. Iyengar, 
 J. Tomasi, M. Cossi, J. M. Millam, M. Klene, C. Adamo, R. Cammi, 
 J. W. Ochterski, R. L. Martin, K. Morokuma, O. Farkas, 
 J. B. Foresman, and D. J. Fox, Gaussian, Inc., Wallingford CT, 2016.
 
 ******************************************
 Gaussian 16:  ES64L-G16RevA.03 25-Dec-2016
                 7-Feb-2023 
 ******************************************
 %nproc=12
 Will use up to   12 processors via shared memory.
 %mem=12GB
 %chk=TSoo.chk
 ---------------------------------------------------------
 #p uwb97xd/6-31g* freq guess=read scrf=(smd,solvent=dmso)
 ---------------------------------------------------------
 1/10=4,30=1,38=1/1,3;
 2/12=2,17=6,18=5,40=1/2;
 3/5=1,6=6,7=1,11=2,25=1,30=1,70=32201,71=2,72=21,74=-58,116=2,140=1/1,2,3;
 4/5=1/1;
 5/5=2,38=6,53=21,98=1/2;
 8/6=4,10=90,11=11/1;
 11/6=1,8=1,9=11,15=111,16=1/1,2,10;
 10/6=1/2;
 6/7=2,8=2,9=2,10=2,28=1/1;
 7/8=1,10=1,25=1/1,2,3,16;
 1/10=4,30=1/3;
 99//99;
 Leave Link    1 at Tue Feb  7 11:48:33 2023, MaxMem=  1610612736 cpu:               0.1 elap:               0.0
 (Enter /home/zhouoh/g16/l101.exe)
 -
 t
 -
 Symbolic Z-matrix:
 Charge = -1 Multiplicity = 1
 C                     0.83236   0.6405   -0.29828 
 O                     2.59163  -0.05073  -1.45119 
 O                     0.88245   1.01009  -1.64168 
 O                     1.40624   1.60643   0.54135 
 C                    -0.60017   0.30584   0.09801 
 C                    -0.95635   0.37702   1.45221 
 C                    -1.5166   -0.0931   -0.86723 
 C                    -2.26501   0.0267    1.80317 
 H                    -0.23529   0.6956    2.1973 
 C                    -2.88075  -0.45272  -0.55009 
 H                    -1.21487  -0.15388  -1.90913 
 C                    -3.1949   -0.37174   0.85632 
 H                    -2.55807   0.06725   2.85196 
 O                    -3.71412  -0.80644  -1.42939 
 C                     0.85523   2.90451   0.41567 
 H                    -0.22069   2.91468   0.63081 
 H                     1.36943   3.52878   1.14991 
 H                     1.02571   3.31609  -0.58569 
 H                    -4.20646  -0.63775   1.16031 
 C                     1.84807  -0.53664  -0.38218 
 C                     2.61519  -0.90527   0.90979 
 C                     1.30425  -1.97703  -0.45209 
 C                     1.70465  -2.14909   1.03088 
 H                     2.60463  -0.1599    1.7066 
 H                     3.64897  -1.17575   0.67252 
 H                     0.25717  -2.11932  -0.72893 
 H                     1.94422  -2.56817  -1.11493 
 H                     0.86168  -1.96845   1.70312 
 H                     2.19207  -3.08778   1.3044 
 
 ITRead=  0  0  0  0  0  0  0  0  0  0  0  0  0  0  0  0  0  0  0  0
 ITRead=  0  0  0  0  0  0  0  0  0
 MicOpt= -1 -1 -1 -1 -1 -1 -1 -1 -1 -1 -1 -1 -1 -1 -1 -1 -1 -1 -1 -1
 MicOpt= -1 -1 -1 -1 -1 -1 -1 -1 -1
 NAtoms=     29 NQM=       29 NQMF=       0 NMMI=      0 NMMIF=      0
                NMic=       0 NMicF=      0.
                    Isotopes and Nuclear Properties:
 (Nuclear quadrupole moments (NQMom) in fm**2, nuclear magnetic moments (NMagM)
  in nuclear magnetons)

  Atom         1           2           3           4           5           6           7           8           9          10
 IAtWgt=          12          16          16          16          12          12          12          12           1          12
 AtmWgt=  12.0000000  15.9949146  15.9949146  15.9949146  12.0000000  12.0000000  12.0000000  12.0000000   1.0078250  12.0000000
 NucSpn=           0           0           0           0           0           0           0           0           1           0
 AtZEff=  -0.0000000  -0.0000000  -0.0000000  -0.0000000  -0.0000000  -0.0000000  -0.0000000  -0.0000000  -0.0000000  -0.0000000
 NQMom=    0.0000000   0.0000000   0.0000000   0.0000000   0.0000000   0.0000000   0.0000000   0.0000000   0.0000000   0.0000000
 NMagM=    0.0000000   0.0000000   0.0000000   0.0000000   0.0000000   0.0000000   0.0000000   0.0000000   2.7928460   0.0000000
 AtZNuc=   6.0000000   8.0000000   8.0000000   8.0000000   6.0000000   6.0000000   6.0000000   6.0000000   1.0000000   6.0000000

  Atom        11          12          13          14          15          16          17          18          19          20
 IAtWgt=           1          12           1          16          12           1           1           1           1          12
 AtmWgt=   1.0078250  12.0000000   1.0078250  15.9949146  12.0000000   1.0078250   1.0078250   1.0078250   1.0078250  12.0000000
 NucSpn=           1           0           1           0           0           1           1           1           1           0
 AtZEff=  -0.0000000  -0.0000000  -0.0000000  -0.0000000  -0.0000000  -0.0000000  -0.0000000  -0.0000000  -0.0000000  -0.0000000
 NQMom=    0.0000000   0.0000000   0.0000000   0.0000000   0.0000000   0.0000000   0.0000000   0.0000000   0.0000000   0.0000000
 NMagM=    2.7928460   0.0000000   2.7928460   0.0000000   0.0000000   2.7928460   2.7928460   2.7928460   2.7928460   0.0000000
 AtZNuc=   1.0000000   6.0000000   1.0000000   8.0000000   6.0000000   1.0000000   1.0000000   1.0000000   1.0000000   6.0000000

  Atom        21          22          23          24          25          26          27          28          29
 IAtWgt=          12          12          12           1           1           1           1           1           1
 AtmWgt=  12.0000000  12.0000000  12.0000000   1.0078250   1.0078250   1.0078250   1.0078250   1.0078250   1.0078250
 NucSpn=           0           0           0           1           1           1           1           1           1
 AtZEff=  -0.0000000  -0.0000000  -0.0000000  -0.0000000  -0.0000000  -0.0000000  -0.0000000  -0.0000000  -0.0000000
 NQMom=    0.0000000   0.0000000   0.0000000   0.0000000   0.0000000   0.0000000   0.0000000   0.0000000   0.0000000
 NMagM=    0.0000000   0.0000000   0.0000000   2.7928460   2.7928460   2.7928460   2.7928460   2.7928460   2.7928460
 AtZNuc=   6.0000000   6.0000000   6.0000000   1.0000000   1.0000000   1.0000000   1.0000000   1.0000000   1.0000000
 Leave Link  101 at Tue Feb  7 11:48:33 2023, MaxMem=  1610612736 cpu:               0.4 elap:               0.0
 (Enter /home/zhouoh/g16/l103.exe)

 GradGradGradGradGradGradGradGradGradGradGradGradGradGradGradGradGradGrad
 Berny optimization.
 Initialization pass.
 Trust Radius=3.00D-01 FncErr=1.00D-07 GrdErr=1.00D-07 EigMax=2.50D+02 EigMin=1.00D-04
 Number of steps in this run=      2 maximum allowed number of steps=      2.
 GradGradGradGradGradGradGradGradGradGradGradGradGradGradGradGradGradGrad

 Leave Link  103 at Tue Feb  7 11:48:33 2023, MaxMem=  1610612736 cpu:               0.1 elap:               0.0
 (Enter /home/zhouoh/g16/l202.exe)
                          Input orientation:                          
 ---------------------------------------------------------------------
 Center     Atomic      Atomic             Coordinates (Angstroms)
 Number     Number       Type             X           Y           Z
 ---------------------------------------------------------------------
      1          6           0        0.832363    0.640504   -0.298275
      2          8           0        2.591625   -0.050725   -1.451188
      3          8           0        0.882451    1.010091   -1.641676
      4          8           0        1.406239    1.606429    0.541352
      5          6           0       -0.600172    0.305839    0.098014
      6          6           0       -0.956351    0.377015    1.452214
      7          6           0       -1.516601   -0.093097   -0.867229
      8          6           0       -2.265006    0.026700    1.803172
      9          1           0       -0.235292    0.695604    2.197304
     10          6           0       -2.880745   -0.452716   -0.550091
     11          1           0       -1.214871   -0.153878   -1.909132
     12          6           0       -3.194902   -0.371744    0.856323
     13          1           0       -2.558073    0.067252    2.851963
     14          8           0       -3.714122   -0.806442   -1.429389
     15          6           0        0.855228    2.904510    0.415672
     16          1           0       -0.220692    2.914683    0.630812
     17          1           0        1.369426    3.528777    1.149912
     18          1           0        1.025711    3.316086   -0.585689
     19          1           0       -4.206459   -0.637749    1.160311
     20          6           0        1.848072   -0.536643   -0.382176
     21          6           0        2.615192   -0.905274    0.909791
     22          6           0        1.304246   -1.977025   -0.452088
     23          6           0        1.704652   -2.149092    1.030876
     24          1           0        2.604634   -0.159898    1.706596
     25          1           0        3.648969   -1.175749    0.672516
     26          1           0        0.257171   -2.119324   -0.728934
     27          1           0        1.944224   -2.568167   -1.114928
     28          1           0        0.861678   -1.968452    1.703117
     29          1           0        2.192071   -3.087778    1.304396
 ---------------------------------------------------------------------
                    Distance matrix (angstroms):
                    1          2          3          4          5
     1  C    0.000000
     2  O    2.214048   0.000000
     3  O    1.394213   2.020617   0.000000
     4  O    1.402611   2.849827   2.322840   0.000000
     5  C    1.523549   3.565772   2.391791   2.431824   0.000000
     6  C    2.516572   4.604437   3.654331   2.814775   1.402065
     7  C    2.525769   4.149738   2.751771   3.662715   1.389491
     8  C    3.792958   5.846684   4.768702   4.191154   2.399407
     9  H    2.714929   4.675464   4.010738   2.503278   2.166119
    10  C    3.878880   5.560612   4.182464   4.879504   2.489269
    11  H    2.723430   3.835331   2.413528   3.996720   2.148914
    12  C    4.310059   6.237913   4.977376   5.018254   2.786893
    13  H    4.663440   6.711961   5.737503   4.839810   3.387408
    14  O    4.903427   6.350908   4.947054   5.993652   3.642364
    15  C    2.374019   3.903031   2.796828   1.415776   2.995361
    16  H    2.672830   4.586665   3.163637   2.089602   2.689600
    17  H    3.275333   4.590460   3.791291   2.016711   3.920859
    18  H    2.697912   3.812688   2.540324   2.082775   3.488916
    19  H    5.399179   7.306057   6.038503   6.076333   3.876098
    20  C    1.557042   1.389883   2.216112   2.375053   2.633298
    21  C    2.650912   2.510982   3.630564   2.811755   3.530488
    22  C    2.664168   2.523128   3.242822   3.720009   3.023390
    23  C    3.210822   3.369051   4.218884   3.799029   3.494157
    24  H    2.793044   3.159697   3.942805   2.431842   3.615969
    25  H    3.489195   2.625600   4.217464   3.575969   4.536558
    26  H    2.851835   3.201629   3.319234   4.100636   2.701906
    27  H    3.492668   2.621014   3.769450   4.523267   4.025555
    28  H    3.288325   4.076768   4.478816   3.798160   3.144163
    29  H    4.279889   4.120264   5.214113   4.820306   4.557260
                    6          7          8          9         10
     6  C    0.000000
     7  C    2.432016   0.000000
     8  C    1.399453   2.775879   0.000000
     9  H    1.084705   3.413966   2.173134   0.000000
    10  C    2.898443   1.445957   2.479278   3.983119   0.000000
    11  H    3.412818   1.086415   3.862201   4.306276   2.170584
    12  C    2.434510   2.421770   1.385636   3.420052   1.443347
    13  H    2.149596   3.865587   1.089723   2.493735   3.456654
    14  O    4.160470   2.377811   3.639164   5.245122   1.262064
    15  C    3.277876   4.032004   4.465737   3.040183   5.114798
    16  H    2.766885   3.601423   3.727478   2.716325   4.450819
    17  H    3.928642   5.051335   5.089242   3.420383   6.066815
    18  H    4.088980   4.262059   5.230252   4.025184   5.428216
    19  H    3.417332   3.412169   2.150349   4.315478   2.171918
    20  C    3.473406   3.428270   4.691536   3.537309   4.732542
    21  C    3.833328   4.570464   5.048073   3.513653   5.704506
    22  C    3.778646   3.417412   4.673400   4.066006   4.455028
    23  C    3.693194   4.266895   4.592243   3.635414   5.138386
    24  H    3.610208   4.859384   4.874171   3.006303   5.938667
    25  H    4.922192   5.497824   6.139981   4.573229   6.682418
    26  H    3.530120   2.696477   4.168736   4.090135   3.557539
    27  H    4.865969   4.261999   5.741625   5.135501   5.298537
    28  H    2.978153   3.972385   3.710363   2.923142   4.623865
    29  H    4.683930   5.238160   5.460246   4.582942   6.009670
                   11         12         13         14         15
    11  H    0.000000
    12  C    3.408186   0.000000
    13  H    4.951880   2.140291   0.000000
    14  O    2.627213   2.383911   4.519930   0.000000
    15  C    4.363916   5.227960   5.063217   6.168823   0.000000
    16  H    4.105578   4.438173   4.301712   5.504112   1.097266
    17  H    5.440431   6.011102   5.504942   7.161660   1.092345
    18  H    4.337322   5.787319   5.934297   6.338224   1.095985
    19  H    4.313376   1.089227   2.464932   2.641477   6.222762
    20  C    3.443795   5.195446   5.498951   5.666344   3.669310
    21  C    4.814593   5.834784   5.610749   6.748463   4.225646
    22  C    3.434064   4.952898   5.478442   5.244940   4.978354
    23  C    4.598711   5.214889   5.138031   6.100715   5.161288
    24  H    5.259481   5.865361   5.293109   7.083721   3.757327
    25  H    5.600542   6.893387   6.694954   7.666127   4.951714
    26  H    2.724473   4.181373   5.052676   4.240927   5.187167
    27  H    4.054557   5.926274   6.553803   5.934597   5.786090
    28  H    4.544566   4.440988   4.142298   5.665757   5.040170
    29  H    5.526462   6.049553   5.908726   6.896462   6.203587
                   16         17         18         19         20
    16  H    0.000000
    17  H    1.781867   0.000000
    18  H    1.787322   1.782046   0.000000
    19  H    5.365303   6.960642   6.786526   0.000000
    20  C    4.149407   4.370816   3.944771   6.248747   0.000000
    21  C    4.765725   4.611984   4.752135   6.831490   1.547107
    22  C    5.237071   5.734502   5.302118   5.895877   1.541212
    23  C    5.432202   5.689002   5.739548   6.102634   2.148785
    24  H    4.311940   3.929626   4.453093   6.849654   2.253285
    25  H    5.630955   5.249456   5.351742   7.888925   2.182673
    26  H    5.236267   6.055429   5.491344   5.068363   2.270702
    27  H    6.147854   6.529366   5.978979   6.836236   2.161773
    28  H    5.115307   5.548276   5.761240   5.267962   2.715050
    29  H    6.504205   6.669289   6.778074   6.853071   3.077523
                   21         22         23         24         25
    21  C    0.000000
    22  C    2.173003   0.000000
    23  C    1.546230   1.545676   0.000000
    24  H    1.091144   3.106908   2.285489   0.000000
    25  H    1.094601   2.721122   2.203676   1.786592   0.000000
    26  H    3.117627   1.092364   2.278820   3.909187   3.789286
    27  H    2.704607   1.094704   2.199430   3.767877   2.835479
    28  H    2.198755   2.200193   1.093226   2.511728   3.075631
    29  H    2.257890   2.259921   1.092484   2.984033   2.485494
                   26         27         28         29
    26  H    0.000000
    27  H    1.787904   0.000000
    28  H    2.510590   3.077814   0.000000
    29  H    2.969204   2.486876   1.783764   0.000000
 Stoichiometry    C12H13O4(1-)
 Framework group  C1[X(C12H13O4)]
 Deg. of freedom    81
 Full point group                 C1      NOp   1
 Largest Abelian subgroup         C1      NOp   1
 Largest concise Abelian subgroup C1      NOp   1
                         Standard orientation:                         
 ---------------------------------------------------------------------
 Center     Atomic      Atomic             Coordinates (Angstroms)
 Number     Number       Type             X           Y           Z
 ---------------------------------------------------------------------
      1          6           0        0.853807    0.595992   -0.322163
      2          8           0        2.609264   -0.224186   -1.393465
      3          8           0        0.949282    0.891367   -1.681378
      4          8           0        1.447211    1.581889    0.479832
      5          6           0       -0.599738    0.339445    0.055453
      6          6           0       -0.983340    0.496474    1.394847
      7          6           0       -1.509480   -0.073919   -0.910046
      8          6           0       -2.312746    0.217031    1.731093
      9          1           0       -0.267026    0.825640    2.139916
     10          6           0       -2.893926   -0.362262   -0.608452
     11          1           0       -1.186925   -0.201829   -1.939557
     12          6           0       -3.236338   -0.194334    0.783599
     13          1           0       -2.627624    0.324783    2.768753
     14          8           0       -3.720820   -0.729209   -1.488452
     15          6           0        0.952297    2.892107    0.272919
     16          1           0       -0.126925    2.955992    0.460514
     17          1           0        1.474618    3.533836    0.986068
     18          1           0        1.161987    3.242834   -0.744039
     19          1           0       -4.264482   -0.403828    1.075911
     20          6           0        1.822573   -0.622968   -0.319284
     21          6           0        2.544628   -0.952249    1.008779
     22          6           0        1.222495   -2.042537   -0.327327
     23          6           0        1.581875   -2.151113    1.172063
     24          1           0        2.546254   -0.165720    1.765063
     25          1           0        3.571696   -1.275387    0.811637
     26          1           0        0.177054   -2.158084   -0.622219
     27          1           0        1.852828   -2.692788   -0.942332
     28          1           0        0.731902   -1.901985    1.812862
     29          1           0        2.024493   -3.092361    1.506224
 ---------------------------------------------------------------------
 Rotational constants (GHZ):           0.8233219           0.4162422           0.3859122
 Leave Link  202 at Tue Feb  7 11:48:33 2023, MaxMem=  1610612736 cpu:               0.0 elap:               0.0
 (Enter /home/zhouoh/g16/l301.exe)
 Standard basis: 6-31G(d) (6D, 7F)
 Ernie: Thresh=  0.10000D-02 Tol=  0.10000D-05 Strict=F.
 There are   266 symmetry adapted cartesian basis functions of A   symmetry.
 There are   266 symmetry adapted basis functions of A   symmetry.
   266 basis functions,   500 primitive gaussians,   266 cartesian basis functions
    59 alpha electrons       59 beta electrons
       nuclear repulsion energy      1143.1815770313 Hartrees.
 IExCor= 4639 DFT=T Ex+Corr=wB97XD ExCW=0 ScaHFX=  1.000000
 ScaDFX=  1.000000  1.000000  1.000000  1.000000 ScalE2=  1.000000  1.000000
 IRadAn=      5 IRanWt=     -1 IRanGd=            0 ICorTp=0 IEmpDi=121
 HFx  wShort=  0.000000 wLong=  0.200000 cFull=  0.222036 cShort=  0.000000 cLong=  0.777964
 DFx  wShort=  0.000000 wLong=  0.200000 cFull=  0.000000 cShort=  0.000000 cLong=  1.000000
 NAtoms=   29 NActive=   29 NUniq=   29 SFac= 1.00D+00 NAtFMM=   60 NAOKFM=F Big=F
 Integral buffers will be    131072 words long.
 Raffenetti 2 integral format.
 Two-electron integral symmetry is turned on.
 R6Disp:  Grimme-D2 Dispersion energy=       -0.0222924307 Hartrees.
 Nuclear repulsion after empirical dispersion term =     1143.1592846006 Hartrees.
 Force inversion solution in PCM.
 ------------------------------------------------------------------------------
 Polarizable Continuum Model (PCM)
 =================================
 Model                : PCM.
 Atomic radii         : SMD-Coulomb.
 Polarization charges : Total charges.
 Charge compensation  : None.
 Solution method      : Matrix inversion.
 Cavity type          : VdW (van der Waals Surface) (Alpha=1.000).
 Cavity algorithm     : GePol (No added spheres)
                        Default sphere list used, NSphG=   29.
                        Lebedev-Laikov grids with approx.  5.0 points / Ang**2.
                        Smoothing algorithm: York/Karplus (Gamma=1.0000).
                        Polarization charges: spherical gaussians, with
                                              point-specific exponents (IZeta= 3).
                        Self-potential: point-specific (ISelfS= 7).
                        Self-field    : sphere-specific E.n sum rule (ISelfD= 2).
 1st derivatives      : Analytical E(r).r(x)/FMM algorithm (CHGder, D1EAlg=3).
                        Cavity 1st derivative terms included.
 2nd derivatives      : Analytical E(r).r(xy)/FMM algorithm (CHGder, D2EAlg=3).
                        Cavity 2nd derivative terms included.
 Solvent              : DiMethylSulfoxide, Eps=  46.826000 Eps(inf)=   2.007889
 ------------------------------------------------------------------------------
 GePol: Number of generator spheres                  =      29
 GePol: Total number of spheres                      =      29
 GePol: Number of exposed spheres                    =      29 (100.00%)
 GePol: Number of points                             =    2253
 GePol: Average weight of points                     =       0.12
 GePol: Minimum weight of points                     =   0.16D-08
 GePol: Maximum weight of points                     =    0.17992
 GePol: Number of points with low weight             =     124
 GePol: Fraction of low-weight points (<1% of avg)   =       5.50%
 GePol: Cavity surface area                          =    266.957 Ang**2
 GePol: Cavity volume                                =    276.981 Ang**3
 ------------------------------------------------------------------------------
 Atomic radii for non-electrostatic terms: SMD-CDS.
 ------------------------------------------------------------------------------
 PCM non-electrostatic energy =        -0.0041056381 Hartrees.
 Nuclear repulsion after PCM non-electrostatic terms =     1143.1551789625 Hartrees.
 Leave Link  301 at Tue Feb  7 11:48:33 2023, MaxMem=  1610612736 cpu:               0.4 elap:               0.0
 (Enter /home/zhouoh/g16/l302.exe)
 NPDir=0 NMtPBC=     1 NCelOv=     1 NCel=       1 NClECP=     1 NCelD=      1
         NCelK=      1 NCelE2=     1 NClLst=     1 CellRange=     0.0.
 One-electron integrals computed using PRISM.
 One-electron integral symmetry used in STVInt
 NBasis=   266 RedAO= T EigKep=  4.80D-04  NBF=   266
 NBsUse=   266 1.00D-06 EigRej= -1.00D+00 NBFU=   266
 Precomputing XC quadrature grid using
 IXCGrd= 4 IRadAn=           5 IRanWt=          -1 IRanGd=           0 AccXCQ= 0.00D+00.
 Generated NRdTot=       0 NPtTot=           0 NUsed=           0 NTot=          32
 NSgBfM=   266   266   266   266   266 MxSgAt=    29 MxSgA2=    29.
 Leave Link  302 at Tue Feb  7 11:48:33 2023, MaxMem=  1610612736 cpu:               1.6 elap:               0.1
 (Enter /home/zhouoh/g16/l303.exe)
 DipDrv:  MaxL=1.
 Leave Link  303 at Tue Feb  7 11:48:33 2023, MaxMem=  1610612736 cpu:               0.1 elap:               0.0
 (Enter /home/zhouoh/g16/l401.exe)
 Initial guess from the checkpoint file:  "TSoo.chk"
 B after Tr=     0.000000    0.000000    0.000000
         Rot=    1.000000    0.000000    0.000000    0.000000 Ang=   0.00 deg.
 Guess basis will be translated and rotated to current coordinates.
 JPrj=2 DoOrth=T DoCkMO=T.
 Initial guess <Sx>= 0.0000 <Sy>= 0.0000 <Sz>= 0.0000 <S**2>= 0.8206 S= 0.5347
 Leave Link  401 at Tue Feb  7 11:48:34 2023, MaxMem=  1610612736 cpu:               0.9 elap:               0.1
 (Enter /home/zhouoh/g16/l502.exe)
 Integral symmetry usage will be decided dynamically.
 UHF open shell SCF:
 Using DIIS extrapolation, IDIIS=  1040.
 NGot=  1610612736 LenX=  1610465009 LenY=  1610393812
 Requested convergence on RMS density matrix=1.00D-08 within 128 cycles.
 Requested convergence on MAX density matrix=1.00D-06.
 Requested convergence on             energy=1.00D-06.
 No special actions if energy rises.
 Fock matrices will be formed incrementally for  20 cycles.

 Cycle   1  Pass 1  IDiag  1:
 FoFJK:  IHMeth= 1 ICntrl=       0 DoSepK=T KAlg= 0 I1Cent=           0 FoldK=F
 IRaf=         1 NMat=       1 IRICut=       1 DoRegI=T DoRafI=F ISym2E= 0 IDoP0=0 IntGTp=1.
 FoFCou: FMM=F IPFlag=           0 FMFlag=      100000 FMFlg1=           0
         NFxFlg=           0 DoJE=T BraDBF=F KetDBF=F FulRan=T
         wScrn=  0.000000 ICntrl=       500 IOpCl=  0 I1Cent=           0 NGrid=           0
         NMat0=    1 NMatS0=      1 NMatT0=    0 NMatD0=    1 NMtDS0=    0 NMtDT0=    0
 Symmetry not used in FoFCou.
 Inv3:  Mode=1 IEnd=    15228027.
 Iteration    1 A*A^-1 deviation from unit magnitude is 3.33D-15 for   1118.
 Iteration    1 A*A^-1 deviation from orthogonality  is 2.06D-15 for    581    221.
 Iteration    1 A^-1*A deviation from unit magnitude is 3.33D-15 for   1118.
 Iteration    1 A^-1*A deviation from orthogonality  is 2.11D-15 for   1482    731.
 E= -765.687844943607    
 DIIS: error= 2.45D-08 at cycle   1 NSaved=   1.
 NSaved= 1 IEnMin= 1 EnMin= -765.687844943607     IErMin= 1 ErrMin= 2.45D-08
 ErrMax= 2.45D-08  0.00D+00 EMaxC= 1.00D-01 BMatC= 6.29D-13 BMatP= 6.29D-13
 IDIUse=1 WtCom= 1.00D+00 WtEn= 0.00D+00
 Coeff-Com:  0.100D+01
 Coeff:      0.100D+01
 Gap=     0.175 Goal=   None    Shift=    0.000
 Gap=     0.171 Goal=   None    Shift=    0.000
 RMSDP=3.56D-09 MaxDP=2.76D-07              OVMax= 6.03D-07

 Error on total polarization charges =  0.02750
 SCF Done:  E(UwB97XD) =  -765.687844944     A.U. after    1 cycles
            NFock=  1  Conv=0.36D-08     -V/T= 2.0087
 <Sx>= 0.0000 <Sy>= 0.0000 <Sz>= 0.0000 <S**2>= 0.8206 S= 0.5347
 <L.S>=  0.00000000000    
 KE= 7.590954118682D+02 PE=-4.091372256067D+03 EE= 1.423433820293D+03
 SMD-CDS (non-electrostatic) energy       (kcal/mol) =      -2.58
 (included in total energy above)
 Annihilation of the first spin contaminant:
 S**2 before annihilation     0.8206,   after     0.0382
 Leave Link  502 at Tue Feb  7 11:48:37 2023, MaxMem=  1610612736 cpu:              36.0 elap:               3.2
 (Enter /home/zhouoh/g16/l801.exe)
 DoSCS=F DFT=T ScalE2(SS,OS)=  1.000000  1.000000
 Range of M.O.s used for correlation:     1   266
 NBasis=   266 NAE=    59 NBE=    59 NFC=     0 NFV=     0
 NROrb=    266 NOA=    59 NOB=    59 NVA=   207 NVB=   207
 Leave Link  801 at Tue Feb  7 11:48:37 2023, MaxMem=  1610612736 cpu:               0.1 elap:               0.0
 (Enter /home/zhouoh/g16/l1101.exe)
 Using compressed storage, NAtomX=    29.
 Will process     30 centers per pass.
 R6Disp: Adding Grimme-D2 dispersion energy 1st derivatives to the gradient.
 Leave Link 1101 at Tue Feb  7 11:48:37 2023, MaxMem=  1610612736 cpu:               1.5 elap:               0.1
 (Enter /home/zhouoh/g16/l1102.exe)
 Symmetrizing basis deriv contribution to polar:
 IMax=3 JMax=2 DiffMx= 0.00D+00
 Leave Link 1102 at Tue Feb  7 11:48:37 2023, MaxMem=  1610612736 cpu:               0.1 elap:               0.0
 (Enter /home/zhouoh/g16/l1110.exe)
 Forming Gx(P) for the SCF density, NAtomX=    29.
 Integral derivatives from FoFJK, PRISM(SPDF).
 Do as many integral derivatives as possible in FoFJK.
 G2DrvN: MDV=    1610610512.
 G2DrvN: will do    30 centers at a time, making    1 passes.
 Calling FoFCou, ICntrl=  3107 FMM=F I1Cent=   0 AccDes= 0.00D+00.
 FoFJK:  IHMeth= 1 ICntrl=    3107 DoSepK=T KAlg= 0 I1Cent=           0 FoldK=F
 IRaf=         1 NMat=       1 IRICut=       1 DoRegI=T DoRafI=F ISym2E= 0 IDoP0=0 IntGTp=1.
 FoFCou: FMM=F IPFlag=           0 FMFlag=      100000 FMFlg1=           0
         NFxFlg=           0 DoJE=F BraDBF=F KetDBF=F FulRan=T
         wScrn=  0.000000 ICntrl=      3507 IOpCl=  0 I1Cent=           0 NGrid=           0
         NMat0=    1 NMatS0=      1 NMatT0=    0 NMatD0=    1 NMtDS0=    0 NMtDT0=    0
 Symmetry not used in FoFCou.
 NEqPCM:  Using equilibrium solvation (IEInf=0, Eps=  46.8260, EpsInf=   2.0079)
 G2PCM: DoFxE=T DoFxN=T DoGrad=T DoDP/DQ/DG/TGxP=FFFF NFrqRd=   0 IEInf=0 SqF1=F DoCFld=F IF1Alg=4.
 GePol: Maximum number of non-zero 1st derivatives   =     359
 End of G2Drv F.D. properties file   721 does not exist.
 End of G2Drv F.D. properties file   722 does not exist.
 End of G2Drv F.D. properties file   788 does not exist.
 Leave Link 1110 at Tue Feb  7 11:49:26 2023, MaxMem=  1610612736 cpu:             588.1 elap:              49.0
 (Enter /home/zhouoh/g16/l1002.exe)
 Minotr:  UHF open shell wavefunction.
          IDoAtm=11111111111111111111111111111
 NEqPCM:  Using equilibrium solvation (IEInf=0, Eps=  46.8260, EpsInf=   2.0079)
          Direct CPHF calculation.
          Differentiating once with respect to electric field.
                with respect to dipole field.
          Differentiating once with respect to nuclear coordinates.
          Requested convergence is 1.0D-08 RMS, and 1.0D-07 maximum.
          Secondary convergence is 1.0D-12 RMS, and 1.0D-12 maximum.
          NewPWx=T KeepS1=F KeepF1=F KeepIn=T MapXYZ=F SortEE=F KeepMc=T.
         8629 words used for storage of precomputed grid.
 Two-electron integrals replicated using symmetry.
          MDV=    1610612736 using IRadAn=       1.
          Solving linear equations simultaneously, MaxMat=     384.
 FoF2E skips out because all densities are zero.
 CalDSu exits because no D1Ps are significant.
 FoFJK:  IHMeth= 1 ICntrl=       0 DoSepK=T KAlg= 0 I1Cent=           0 FoldK=F
 IRaf=         1 NMat=      87 IRICut=       1 DoRegI=T DoRafI=F ISym2E= 2 IDoP0=0 IntGTp=1.
          There are    90 degrees of freedom in the 1st order CPHF.  IDoFFX=6 NUNeed=     3.
     87 vectors produced by pass  0 Test12= 2.71D-14 1.11D-09 XBig12= 1.87D+02 4.68D+00.
 AX will form    87 AO Fock derivatives at one time.
     87 vectors produced by pass  1 Test12= 2.71D-14 1.11D-09 XBig12= 1.91D+01 1.45D+00.
     87 vectors produced by pass  2 Test12= 2.71D-14 1.11D-09 XBig12= 1.59D+00 4.45D-01.
     87 vectors produced by pass  3 Test12= 2.71D-14 1.11D-09 XBig12= 3.53D-02 3.56D-02.
     87 vectors produced by pass  4 Test12= 2.71D-14 1.11D-09 XBig12= 5.70D-04 2.96D-03.
     87 vectors produced by pass  5 Test12= 2.71D-14 1.11D-09 XBig12= 5.46D-06 2.56D-04.
     87 vectors produced by pass  6 Test12= 2.71D-14 1.11D-09 XBig12= 4.40D-08 1.38D-05.
     56 vectors produced by pass  7 Test12= 2.71D-14 1.11D-09 XBig12= 3.59D-10 1.13D-06.
      9 vectors produced by pass  8 Test12= 2.71D-14 1.11D-09 XBig12= 3.10D-12 1.27D-07.
      3 vectors produced by pass  9 Test12= 2.71D-14 1.11D-09 XBig12= 3.34D-14 1.99D-08.
      1 vectors produced by pass 10 Test12= 2.71D-14 1.11D-09 XBig12= 3.92D-16 2.54D-09.
 InvSVY:  IOpt=1 It=  1 EMax= 1.24D-14
 Solved reduced A of dimension   678 with    90 vectors.
 FullF1:  Do perturbations      1 to       3.
 Isotropic polarizability for W=    0.000000      197.71 Bohr**3.
 End of Minotr F.D. properties file   721 does not exist.
 End of Minotr F.D. properties file   722 does not exist.
 End of Minotr F.D. properties file   788 does not exist.
 Leave Link 1002 at Tue Feb  7 11:51:45 2023, MaxMem=  1610612736 cpu:            1666.1 elap:             138.9
 (Enter /home/zhouoh/g16/l601.exe)
 Copying SCF densities to generalized density rwf, IOpCl= 1 IROHF=0.

 **********************************************************************

            Population analysis using the SCF density.

 **********************************************************************

 Orbital symmetries:
 Alpha Orbitals:
       Occupied  (A) (A) (A) (A) (A) (A) (A) (A) (A) (A) (A) (A)
                 (A) (A) (A) (A) (A) (A) (A) (A) (A) (A) (A) (A)
                 (A) (A) (A) (A) (A) (A) (A) (A) (A) (A) (A) (A)
                 (A) (A) (A) (A) (A) (A) (A) (A) (A) (A) (A) (A)
                 (A) (A) (A) (A) (A) (A) (A) (A) (A) (A) (A)
       Virtual   (A) (A) (A) (A) (A) (A) (A) (A) (A) (A) (A) (A)
                 (A) (A) (A) (A) (A) (A) (A) (A) (A) (A) (A) (A)
                 (A) (A) (A) (A) (A) (A) (A) (A) (A) (A) (A) (A)
                 (A) (A) (A) (A) (A) (A) (A) (A) (A) (A) (A) (A)
                 (A) (A) (A) (A) (A) (A) (A) (A) (A) (A) (A) (A)
                 (A) (A) (A) (A) (A) (A) (A) (A) (A) (A) (A) (A)
                 (A) (A) (A) (A) (A) (A) (A) (A) (A) (A) (A) (A)
                 (A) (A) (A) (A) (A) (A) (A) (A) (A) (A) (A) (A)
                 (A) (A) (A) (A) (A) (A) (A) (A) (A) (A) (A) (A)
                 (A) (A) (A) (A) (A) (A) (A) (A) (A) (A) (A) (A)
                 (A) (A) (A) (A) (A) (A) (A) (A) (A) (A) (A) (A)
                 (A) (A) (A) (A) (A) (A) (A) (A) (A) (A) (A) (A)
                 (A) (A) (A) (A) (A) (A) (A) (A) (A) (A) (A) (A)
                 (A) (A) (A) (A) (A) (A) (A) (A) (A) (A) (A) (A)
                 (A) (A) (A) (A) (A) (A) (A) (A) (A) (A) (A) (A)
                 (A) (A) (A) (A) (A) (A) (A) (A) (A) (A) (A) (A)
                 (A) (A) (A) (A) (A) (A) (A) (A) (A) (A) (A) (A)
                 (A) (A) (A)
 Beta  Orbitals:
       Occupied  (A) (A) (A) (A) (A) (A) (A) (A) (A) (A) (A) (A)
                 (A) (A) (A) (A) (A) (A) (A) (A) (A) (A) (A) (A)
                 (A) (A) (A) (A) (A) (A) (A) (A) (A) (A) (A) (A)
                 (A) (A) (A) (A) (A) (A) (A) (A) (A) (A) (A) (A)
                 (A) (A) (A) (A) (A) (A) (A) (A) (A) (A) (A)
       Virtual   (A) (A) (A) (A) (A) (A) (A) (A) (A) (A) (A) (A)
                 (A) (A) (A) (A) (A) (A) (A) (A) (A) (A) (A) (A)
                 (A) (A) (A) (A) (A) (A) (A) (A) (A) (A) (A) (A)
                 (A) (A) (A) (A) (A) (A) (A) (A) (A) (A) (A) (A)
                 (A) (A) (A) (A) (A) (A) (A) (A) (A) (A) (A) (A)
                 (A) (A) (A) (A) (A) (A) (A) (A) (A) (A) (A) (A)
                 (A) (A) (A) (A) (A) (A) (A) (A) (A) (A) (A) (A)
                 (A) (A) (A) (A) (A) (A) (A) (A) (A) (A) (A) (A)
                 (A) (A) (A) (A) (A) (A) (A) (A) (A) (A) (A) (A)
                 (A) (A) (A) (A) (A) (A) (A) (A) (A) (A) (A) (A)
                 (A) (A) (A) (A) (A) (A) (A) (A) (A) (A) (A) (A)
                 (A) (A) (A) (A) (A) (A) (A) (A) (A) (A) (A) (A)
                 (A) (A) (A) (A) (A) (A) (A) (A) (A) (A) (A) (A)
                 (A) (A) (A) (A) (A) (A) (A) (A) (A) (A) (A) (A)
                 (A) (A) (A) (A) (A) (A) (A) (A) (A) (A) (A) (A)
                 (A) (A) (A) (A) (A) (A) (A) (A) (A) (A) (A) (A)
                 (A) (A) (A) (A) (A) (A) (A) (A) (A) (A) (A) (A)
                 (A) (A) (A)
 The electronic state is 1-A.
 Alpha  occ. eigenvalues --  -19.32163 -19.29766 -19.26886 -19.15427 -10.39804
 Alpha  occ. eigenvalues --  -10.35102 -10.32179 -10.30909 -10.28900 -10.28721
 Alpha  occ. eigenvalues --  -10.28499 -10.27970 -10.27722 -10.25935 -10.25448
 Alpha  occ. eigenvalues --  -10.25166  -1.18031  -1.10621  -1.05355  -1.03184
 Alpha  occ. eigenvalues --   -0.92909  -0.90904  -0.83142  -0.79976  -0.77554
 Alpha  occ. eigenvalues --   -0.75227  -0.72921  -0.69191  -0.65724  -0.64683
 Alpha  occ. eigenvalues --   -0.60902  -0.58326  -0.57682  -0.57041  -0.54326
 Alpha  occ. eigenvalues --   -0.53238  -0.51894  -0.51067  -0.50131  -0.49565
 Alpha  occ. eigenvalues --   -0.48576  -0.47360  -0.45823  -0.44554  -0.43762
 Alpha  occ. eigenvalues --   -0.43077  -0.42178  -0.40929  -0.40528  -0.39560
 Alpha  occ. eigenvalues --   -0.39516  -0.37851  -0.37160  -0.36262  -0.34110
 Alpha  occ. eigenvalues --   -0.32978  -0.30301  -0.25844  -0.21981
 Alpha virt. eigenvalues --   -0.04484   0.09195   0.12523   0.18430   0.19130
 Alpha virt. eigenvalues --    0.21653   0.22417   0.22605   0.23115   0.25660
 Alpha virt. eigenvalues --    0.26330   0.26598   0.26809   0.27396   0.28023
 Alpha virt. eigenvalues --    0.28116   0.28570   0.29696   0.30553   0.32033
 Alpha virt. eigenvalues --    0.32126   0.33145   0.36421   0.36978   0.38567
 Alpha virt. eigenvalues --    0.39094   0.41030   0.41794   0.41893   0.46535
 Alpha virt. eigenvalues --    0.50181   0.52763   0.56161   0.59752   0.61200
 Alpha virt. eigenvalues --    0.61831   0.62206   0.62379   0.63989   0.65007
 Alpha virt. eigenvalues --    0.65894   0.66587   0.67630   0.69297   0.70474
 Alpha virt. eigenvalues --    0.72121   0.72315   0.73063   0.73683   0.75481
 Alpha virt. eigenvalues --    0.75952   0.77779   0.79304   0.79625   0.80399
 Alpha virt. eigenvalues --    0.81621   0.82594   0.85770   0.87241   0.88781
 Alpha virt. eigenvalues --    0.89189   0.90659   0.90831   0.92466   0.93741
 Alpha virt. eigenvalues --    0.94824   0.96244   0.96543   0.97087   0.97493
 Alpha virt. eigenvalues --    0.98553   0.98824   1.00161   1.00512   1.01057
 Alpha virt. eigenvalues --    1.02494   1.04135   1.04663   1.06999   1.07714
 Alpha virt. eigenvalues --    1.08970   1.10314   1.10460   1.12457   1.14505
 Alpha virt. eigenvalues --    1.16389   1.17131   1.19205   1.20296   1.21245
 Alpha virt. eigenvalues --    1.23312   1.25260   1.27203   1.27920   1.28997
 Alpha virt. eigenvalues --    1.30757   1.34168   1.35527   1.36912   1.37959
 Alpha virt. eigenvalues --    1.42885   1.43690   1.45967   1.51658   1.52844
 Alpha virt. eigenvalues --    1.54053   1.56768   1.57845   1.59067   1.59938
 Alpha virt. eigenvalues --    1.61026   1.62680   1.63135   1.66986   1.69878
 Alpha virt. eigenvalues --    1.73698   1.73971   1.78141   1.81087   1.83175
 Alpha virt. eigenvalues --    1.87336   1.88389   1.89621   1.91010   1.92702
 Alpha virt. eigenvalues --    1.95319   1.96385   1.96875   1.97371   2.01675
 Alpha virt. eigenvalues --    2.02924   2.04669   2.04884   2.05192   2.06913
 Alpha virt. eigenvalues --    2.07642   2.09187   2.10327   2.12092   2.13466
 Alpha virt. eigenvalues --    2.14449   2.15170   2.16403   2.17936   2.19535
 Alpha virt. eigenvalues --    2.22186   2.24804   2.25679   2.25863   2.27744
 Alpha virt. eigenvalues --    2.28459   2.30032   2.32363   2.35562   2.38289
 Alpha virt. eigenvalues --    2.39271   2.41156   2.42746   2.44720   2.45442
 Alpha virt. eigenvalues --    2.47889   2.48691   2.49769   2.53033   2.55223
 Alpha virt. eigenvalues --    2.57228   2.59855   2.60768   2.64585   2.68207
 Alpha virt. eigenvalues --    2.68680   2.71802   2.72730   2.75091   2.76117
 Alpha virt. eigenvalues --    2.78509   2.83568   2.86086   2.87514   2.91143
 Alpha virt. eigenvalues --    2.92923   2.95730   2.99416   3.04660   3.06188
 Alpha virt. eigenvalues --    3.10134   3.15771   3.18246   3.18843   3.31807
 Alpha virt. eigenvalues --    3.51114   4.00732   4.13663   4.20024   4.24360
 Alpha virt. eigenvalues --    4.29444   4.31652   4.36937   4.39708   4.43599
 Alpha virt. eigenvalues --    4.48341   4.53453   4.54461   4.68756   4.80768
 Alpha virt. eigenvalues --    4.92804   5.00206
  Beta  occ. eigenvalues --  -19.31546 -19.30346 -19.26900 -19.15393 -10.39975
  Beta  occ. eigenvalues --  -10.34954 -10.32182 -10.30906 -10.28811 -10.28810
  Beta  occ. eigenvalues --  -10.28503 -10.27974 -10.27703 -10.25950 -10.25444
  Beta  occ. eigenvalues --  -10.25185  -1.17226  -1.12073  -1.04407  -1.03112
  Beta  occ. eigenvalues --   -0.93477  -0.90828  -0.82755  -0.79995  -0.77540
  Beta  occ. eigenvalues --   -0.75317  -0.73216  -0.69090  -0.65639  -0.64566
  Beta  occ. eigenvalues --   -0.60866  -0.58427  -0.57581  -0.56700  -0.54556
  Beta  occ. eigenvalues --   -0.53129  -0.51976  -0.50987  -0.50159  -0.49519
  Beta  occ. eigenvalues --   -0.48501  -0.47600  -0.45965  -0.44561  -0.44126
  Beta  occ. eigenvalues --   -0.43529  -0.41826  -0.40724  -0.40420  -0.39742
  Beta  occ. eigenvalues --   -0.39470  -0.37156  -0.36752  -0.35638  -0.34228
  Beta  occ. eigenvalues --   -0.33999  -0.30018  -0.25809  -0.21948
  Beta virt. eigenvalues --   -0.04848   0.09192   0.12642   0.18348   0.19072
  Beta virt. eigenvalues --    0.21711   0.22394   0.22591   0.23172   0.25699
  Beta virt. eigenvalues --    0.26367   0.26591   0.26871   0.27403   0.27909
  Beta virt. eigenvalues --    0.28109   0.28502   0.29676   0.30609   0.32024
  Beta virt. eigenvalues --    0.32170   0.33042   0.36198   0.37015   0.38690
  Beta virt. eigenvalues --    0.39044   0.41043   0.41630   0.41864   0.46594
  Beta virt. eigenvalues --    0.50359   0.52877   0.56233   0.59823   0.61192
  Beta virt. eigenvalues --    0.61894   0.62206   0.62467   0.63905   0.65002
  Beta virt. eigenvalues --    0.65880   0.66593   0.67507   0.69293   0.70531
  Beta virt. eigenvalues --    0.72134   0.72337   0.73079   0.73560   0.75624
  Beta virt. eigenvalues --    0.75740   0.77818   0.79299   0.79608   0.80434
  Beta virt. eigenvalues --    0.81607   0.82477   0.85720   0.87173   0.88834
  Beta virt. eigenvalues --    0.89151   0.90732   0.90853   0.92546   0.93685
  Beta virt. eigenvalues --    0.94860   0.96238   0.96470   0.97020   0.97504
  Beta virt. eigenvalues --    0.98471   0.98791   1.00201   1.00535   1.01051
  Beta virt. eigenvalues --    1.02493   1.04134   1.04799   1.06955   1.07405
  Beta virt. eigenvalues --    1.08928   1.10278   1.10483   1.12079   1.14730
  Beta virt. eigenvalues --    1.16385   1.17200   1.19266   1.20302   1.21131
  Beta virt. eigenvalues --    1.23262   1.25921   1.26674   1.27913   1.29167
  Beta virt. eigenvalues --    1.30867   1.34209   1.35603   1.36808   1.37880
  Beta virt. eigenvalues --    1.42868   1.43862   1.46069   1.51666   1.52883
  Beta virt. eigenvalues --    1.54099   1.56791   1.57795   1.58889   1.59985
  Beta virt. eigenvalues --    1.61035   1.62520   1.63384   1.66649   1.69988
  Beta virt. eigenvalues --    1.73434   1.74147   1.77637   1.81254   1.83677
  Beta virt. eigenvalues --    1.87831   1.88062   1.89405   1.90941   1.92592
  Beta virt. eigenvalues --    1.94873   1.96535   1.97424   1.97485   2.01120
  Beta virt. eigenvalues --    2.03376   2.04289   2.04853   2.05452   2.07390
  Beta virt. eigenvalues --    2.07465   2.09467   2.10447   2.12069   2.13461
  Beta virt. eigenvalues --    2.14446   2.15210   2.16414   2.17688   2.19668
  Beta virt. eigenvalues --    2.22173   2.24777   2.25644   2.26039   2.27774
  Beta virt. eigenvalues --    2.28332   2.29988   2.32349   2.35378   2.38312
  Beta virt. eigenvalues --    2.39356   2.41200   2.42843   2.44841   2.45497
  Beta virt. eigenvalues --    2.47669   2.48400   2.49779   2.53513   2.55139
  Beta virt. eigenvalues --    2.56722   2.60090   2.61138   2.64365   2.68052
  Beta virt. eigenvalues --    2.68675   2.71772   2.72770   2.75117   2.76156
  Beta virt. eigenvalues --    2.78686   2.83592   2.86079   2.87499   2.90926
  Beta virt. eigenvalues --    2.92965   2.95778   2.99084   3.04506   3.06252
  Beta virt. eigenvalues --    3.10294   3.15861   3.18334   3.18555   3.31868
  Beta virt. eigenvalues --    3.51161   4.00658   4.13685   4.20033   4.24333
  Beta virt. eigenvalues --    4.30209   4.31610   4.36735   4.39675   4.43422
  Beta virt. eigenvalues --    4.48196   4.53323   4.54441   4.68852   4.80657
  Beta virt. eigenvalues --    4.92902   5.00213
          Condensed to atoms (all electrons):
               1          2          3          4          5          6
     1  C    4.765281  -0.031743   0.119169   0.216335   0.318475  -0.045848
     2  O   -0.031743   8.299451   0.005686   0.000594   0.002985  -0.000039
     3  O    0.119169   0.005686   8.344829  -0.060650  -0.052687   0.004206
     4  O    0.216335   0.000594  -0.060650   8.336463  -0.077700   0.002053
     5  C    0.318475   0.002985  -0.052687  -0.077700   5.021237   0.517467
     6  C   -0.045848  -0.000039   0.004206   0.002053   0.517467   5.151467
     7  C   -0.021932   0.000004  -0.001710   0.003665   0.377915  -0.091544
     8  C    0.004517   0.000001  -0.000061   0.000715  -0.032324   0.497515
     9  H   -0.007455  -0.000001   0.000160   0.010027  -0.041080   0.368694
    10  C    0.002049  -0.000000   0.000670  -0.000006  -0.000738  -0.028146
    11  H   -0.010777  -0.000116   0.010296   0.000168  -0.046749   0.005649
    12  C    0.000175  -0.000000  -0.000005  -0.000005  -0.022067  -0.054431
    13  H   -0.000140  -0.000000   0.000000   0.000000   0.003077  -0.037941
    14  O   -0.000080  -0.000000  -0.000001   0.000000   0.007232   0.000177
    15  C   -0.033413  -0.000277  -0.001164   0.223491  -0.007344  -0.005662
    16  H   -0.007544  -0.000006  -0.000811  -0.038452   0.013587   0.005642
    17  H    0.004584  -0.000003   0.000130  -0.031895   0.000119  -0.000059
    18  H   -0.007246   0.000088   0.010644  -0.036469  -0.000809   0.000752
    19  H    0.000008   0.000000   0.000000  -0.000000  -0.000325   0.004794
    20  C    0.333104   0.166925  -0.024903  -0.048334  -0.063824  -0.003415
    21  C   -0.034893  -0.034438   0.004321  -0.006430  -0.002925   0.001151
    22  C   -0.046510  -0.045752   0.000977   0.003328  -0.001512   0.000911
    23  C    0.003134   0.005224  -0.000072   0.000102   0.000565  -0.003123
    24  H   -0.008399   0.001971   0.000175   0.010855   0.000209   0.000274
    25  H    0.004012  -0.001406  -0.000076  -0.000019  -0.000086  -0.000003
    26  H   -0.006131   0.001847   0.000868   0.000078   0.002334  -0.000835
    27  H    0.004398   0.001121  -0.000151  -0.000054   0.000276   0.000005
    28  H    0.002175  -0.000100   0.000004  -0.000079   0.001076   0.007859
    29  H   -0.000247  -0.000148   0.000001  -0.000000   0.000018   0.000092
               7          8          9         10         11         12
     1  C   -0.021932   0.004517  -0.007455   0.002049  -0.010777   0.000175
     2  O    0.000004   0.000001  -0.000001  -0.000000  -0.000116  -0.000000
     3  O   -0.001710  -0.000061   0.000160   0.000670   0.010296  -0.000005
     4  O    0.003665   0.000715   0.010027  -0.000006   0.000168  -0.000005
     5  C    0.377915  -0.032324  -0.041080  -0.000738  -0.046749  -0.022067
     6  C   -0.091544   0.497515   0.368694  -0.028146   0.005649  -0.054431
     7  C    5.569503  -0.024815   0.004135   0.386798   0.347609  -0.105422
     8  C   -0.024815   5.030800  -0.036702  -0.003098  -0.000595   0.443850
     9  H    0.004135  -0.036702   0.544585   0.000354  -0.000129   0.003641
    10  C    0.386798  -0.003098   0.000354   4.353536  -0.032652   0.429620
    11  H    0.347609  -0.000595  -0.000129  -0.032652   0.580530   0.008246
    12  C   -0.105422   0.443850   0.003641   0.429620   0.008246   5.394474
    13  H    0.000237   0.364903  -0.003441   0.002140   0.000016  -0.031956
    14  O   -0.080809   0.006322   0.000001   0.517588   0.002121  -0.085495
    15  C    0.000103  -0.000269  -0.000614   0.000003  -0.000002   0.000028
    16  H   -0.000453  -0.000445  -0.000880  -0.000026  -0.000006  -0.000063
    17  H    0.000013  -0.000006  -0.000103  -0.000000   0.000000  -0.000000
    18  H   -0.000180   0.000020   0.000169  -0.000005  -0.000013  -0.000001
    19  H    0.008471  -0.044700  -0.000128  -0.035386  -0.000145   0.350943
    20  C   -0.004336   0.000075  -0.000348  -0.000029   0.000863   0.000019
    21  C    0.000093  -0.000008   0.000310   0.000005  -0.000006  -0.000001
    22  C   -0.003683   0.000056   0.000147  -0.000323   0.000129  -0.000063
    23  C   -0.000104  -0.000270  -0.000294   0.000017   0.000025   0.000036
    24  H   -0.000010   0.000010   0.000751  -0.000000  -0.000000   0.000000
    25  H   -0.000001   0.000000   0.000007  -0.000000   0.000000  -0.000000
    26  H    0.011432  -0.000168  -0.000020   0.000490   0.000455   0.000190
    27  H    0.000037  -0.000001  -0.000000   0.000001  -0.000019  -0.000001
    28  H   -0.000426   0.000592   0.000448  -0.000025  -0.000004  -0.000104
    29  H   -0.000007   0.000001   0.000003  -0.000000   0.000000  -0.000001
              13         14         15         16         17         18
     1  C   -0.000140  -0.000080  -0.033413  -0.007544   0.004584  -0.007246
     2  O   -0.000000  -0.000000  -0.000277  -0.000006  -0.000003   0.000088
     3  O    0.000000  -0.000001  -0.001164  -0.000811   0.000130   0.010644
     4  O    0.000000   0.000000   0.223491  -0.038452  -0.031895  -0.036469
     5  C    0.003077   0.007232  -0.007344   0.013587   0.000119  -0.000809
     6  C   -0.037941   0.000177  -0.005662   0.005642  -0.000059   0.000752
     7  C    0.000237  -0.080809   0.000103  -0.000453   0.000013  -0.000180
     8  C    0.364903   0.006322  -0.000269  -0.000445  -0.000006   0.000020
     9  H   -0.003441   0.000001  -0.000614  -0.000880  -0.000103   0.000169
    10  C    0.002140   0.517588   0.000003  -0.000026  -0.000000  -0.000005
    11  H    0.000016   0.002121  -0.000002  -0.000006   0.000000  -0.000013
    12  C   -0.031956  -0.085495   0.000028  -0.000063  -0.000000  -0.000001
    13  H    0.544294  -0.000053  -0.000001  -0.000010   0.000000  -0.000000
    14  O   -0.000053   8.346999  -0.000000   0.000000   0.000000   0.000000
    15  C   -0.000001  -0.000000   4.969875   0.364321   0.389971   0.375436
    16  H   -0.000010   0.000000   0.364321   0.570286  -0.028086  -0.040334
    17  H    0.000000   0.000000   0.389971  -0.028086   0.503346  -0.029044
    18  H   -0.000000   0.000000   0.375436  -0.040334  -0.029044   0.553586
    19  H   -0.005387   0.001943   0.000000   0.000000  -0.000000  -0.000000
    20  C    0.000001   0.000001   0.004986  -0.000074  -0.000091   0.000080
    21  C   -0.000000  -0.000000   0.000166  -0.000015  -0.000012  -0.000020
    22  C   -0.000000   0.000005  -0.000151   0.000010   0.000002  -0.000003
    23  C   -0.000000  -0.000000  -0.000018   0.000005  -0.000000  -0.000001
    24  H   -0.000001   0.000000  -0.000447   0.000004  -0.000011   0.000028
    25  H    0.000000   0.000000   0.000005  -0.000000  -0.000000   0.000002
    26  H   -0.000000  -0.000067  -0.000004   0.000001  -0.000000  -0.000000
    27  H   -0.000000  -0.000000   0.000002  -0.000000  -0.000000   0.000000
    28  H   -0.000001   0.000000   0.000002  -0.000001  -0.000000  -0.000000
    29  H    0.000000   0.000000  -0.000000  -0.000000   0.000000  -0.000000
              19         20         21         22         23         24
     1  C    0.000008   0.333104  -0.034893  -0.046510   0.003134  -0.008399
     2  O    0.000000   0.166925  -0.034438  -0.045752   0.005224   0.001971
     3  O    0.000000  -0.024903   0.004321   0.000977  -0.000072   0.000175
     4  O   -0.000000  -0.048334  -0.006430   0.003328   0.000102   0.010855
     5  C   -0.000325  -0.063824  -0.002925  -0.001512   0.000565   0.000209
     6  C    0.004794  -0.003415   0.001151   0.000911  -0.003123   0.000274
     7  C    0.008471  -0.004336   0.000093  -0.003683  -0.000104  -0.000010
     8  C   -0.044700   0.000075  -0.000008   0.000056  -0.000270   0.000010
     9  H   -0.000128  -0.000348   0.000310   0.000147  -0.000294   0.000751
    10  C   -0.035386  -0.000029   0.000005  -0.000323   0.000017  -0.000000
    11  H   -0.000145   0.000863  -0.000006   0.000129   0.000025  -0.000000
    12  C    0.350943   0.000019  -0.000001  -0.000063   0.000036   0.000000
    13  H   -0.005387   0.000001  -0.000000  -0.000000  -0.000000  -0.000001
    14  O    0.001943   0.000001  -0.000000   0.000005  -0.000000   0.000000
    15  C    0.000000   0.004986   0.000166  -0.000151  -0.000018  -0.000447
    16  H    0.000000  -0.000074  -0.000015   0.000010   0.000005   0.000004
    17  H   -0.000000  -0.000091  -0.000012   0.000002  -0.000000  -0.000011
    18  H   -0.000000   0.000080  -0.000020  -0.000003  -0.000001   0.000028
    19  H    0.592339   0.000000  -0.000000   0.000000  -0.000000   0.000000
    20  C    0.000000   4.845234   0.346674   0.350573  -0.122723  -0.026608
    21  C   -0.000000   0.346674   5.259331  -0.201337   0.330491   0.368327
    22  C    0.000000   0.350573  -0.201337   5.293464   0.330038   0.010803
    23  C   -0.000000  -0.122723   0.330491   0.330038   5.158585  -0.023795
    24  H    0.000000  -0.026608   0.368327   0.010803  -0.023795   0.499670
    25  H   -0.000000  -0.027534   0.367790   0.002295  -0.029027  -0.024724
    26  H    0.000000  -0.024253   0.011397   0.359061  -0.023947  -0.000347
    27  H   -0.000000  -0.027400   0.003045   0.360950  -0.028407  -0.000331
    28  H   -0.000000  -0.002492  -0.031189  -0.029003   0.374411  -0.004738
    29  H   -0.000000   0.006940  -0.025519  -0.024749   0.377516   0.001746
              25         26         27         28         29
     1  C    0.004012  -0.006131   0.004398   0.002175  -0.000247
     2  O   -0.001406   0.001847   0.001121  -0.000100  -0.000148
     3  O   -0.000076   0.000868  -0.000151   0.000004   0.000001
     4  O   -0.000019   0.000078  -0.000054  -0.000079  -0.000000
     5  C   -0.000086   0.002334   0.000276   0.001076   0.000018
     6  C   -0.000003  -0.000835   0.000005   0.007859   0.000092
     7  C   -0.000001   0.011432   0.000037  -0.000426  -0.000007
     8  C    0.000000  -0.000168  -0.000001   0.000592   0.000001
     9  H    0.000007  -0.000020  -0.000000   0.000448   0.000003
    10  C   -0.000000   0.000490   0.000001  -0.000025  -0.000000
    11  H    0.000000   0.000455  -0.000019  -0.000004   0.000000
    12  C   -0.000000   0.000190  -0.000001  -0.000104  -0.000001
    13  H    0.000000  -0.000000  -0.000000  -0.000001   0.000000
    14  O    0.000000  -0.000067  -0.000000   0.000000   0.000000
    15  C    0.000005  -0.000004   0.000002   0.000002  -0.000000
    16  H   -0.000000   0.000001  -0.000000  -0.000001  -0.000000
    17  H   -0.000000  -0.000000  -0.000000  -0.000000   0.000000
    18  H    0.000002  -0.000000   0.000000  -0.000000  -0.000000
    19  H   -0.000000   0.000000  -0.000000  -0.000000  -0.000000
    20  C   -0.027534  -0.024253  -0.027400  -0.002492   0.006940
    21  C    0.367790   0.011397   0.003045  -0.031189  -0.025519
    22  C    0.002295   0.359061   0.360950  -0.029003  -0.024749
    23  C   -0.029027  -0.023947  -0.028407   0.374411   0.377516
    24  H   -0.024724  -0.000347  -0.000331  -0.004738   0.001746
    25  H    0.520846  -0.000317   0.001503   0.003482  -0.005871
    26  H   -0.000317   0.517069  -0.023917  -0.005551   0.001601
    27  H    0.001503  -0.023917   0.531224   0.003557  -0.005864
    28  H    0.003482  -0.005551   0.003557   0.529097  -0.026687
    29  H   -0.005871   0.001601  -0.005864  -0.026687   0.521946
          Atomic-Atomic Spin Densities.
               1          2          3          4          5          6
     1  C   -0.152839   0.026387  -0.033531   0.015056   0.018441   0.001746
     2  O    0.026387  -0.869707  -0.004642  -0.001028  -0.001257  -0.000003
     3  O   -0.033531  -0.004642   0.885938   0.002368  -0.010571   0.000555
     4  O    0.015056  -0.001028   0.002368  -0.013430   0.000486  -0.000138
     5  C    0.018441  -0.001257  -0.010571   0.000486   0.067146  -0.007145
     6  C    0.001746  -0.000003   0.000555  -0.000138  -0.007145  -0.016068
     7  C    0.000997   0.000016  -0.002885  -0.000150  -0.000964   0.000023
     8  C   -0.000029  -0.000000  -0.000013   0.000002  -0.000260   0.000592
     9  H    0.000002   0.000001   0.000007  -0.000027  -0.000471   0.000633
    10  C   -0.000196  -0.000000  -0.000043  -0.000000   0.001470  -0.000043
    11  H   -0.000193   0.000052  -0.000396  -0.000014   0.000683   0.000088
    12  C   -0.000031   0.000000  -0.000004   0.000000  -0.000246   0.000883
    13  H    0.000004   0.000000   0.000000  -0.000000  -0.000020   0.000118
    14  O    0.000001   0.000000   0.000001  -0.000000   0.000019   0.000007
    15  C    0.001031   0.000213   0.000244  -0.000109  -0.001229   0.000331
    16  H   -0.000237  -0.000002  -0.000194   0.000135   0.000531  -0.000289
    17  H   -0.000088  -0.000002   0.000003  -0.000210  -0.000063   0.000045
    18  H   -0.000133   0.000029  -0.000708   0.000322  -0.000075   0.000004
    19  H   -0.000000  -0.000000  -0.000000   0.000000  -0.000000  -0.000022
    20  C   -0.000613   0.032869  -0.022882  -0.004460  -0.013231   0.000721
    21  C    0.016433   0.011306   0.000951  -0.001136  -0.000324  -0.000143
    22  C    0.002397  -0.000430   0.000687   0.000020   0.001573   0.000001
    23  C   -0.003534  -0.000695  -0.000066   0.000068   0.000180   0.000160
    24  H   -0.000479  -0.000010   0.000033   0.000277   0.000224  -0.000020
    25  H   -0.000650  -0.002346  -0.000052   0.000036  -0.000005   0.000004
    26  H    0.001182  -0.000079   0.000033  -0.000006  -0.000425  -0.000041
    27  H   -0.000403  -0.000245  -0.000111   0.000001  -0.000005   0.000005
    28  H    0.000493   0.000006   0.000001  -0.000009  -0.000112  -0.000276
    29  H    0.000114   0.000039   0.000001  -0.000001  -0.000007  -0.000008
               7          8          9         10         11         12
     1  C    0.000997  -0.000029   0.000002  -0.000196  -0.000193  -0.000031
     2  O    0.000016  -0.000000   0.000001  -0.000000   0.000052   0.000000
     3  O   -0.002885  -0.000013   0.000007  -0.000043  -0.000396  -0.000004
     4  O   -0.000150   0.000002  -0.000027  -0.000000  -0.000014   0.000000
     5  C   -0.000964  -0.000260  -0.000471   0.001470   0.000683  -0.000246
     6  C    0.000023   0.000592   0.000633  -0.000043   0.000088   0.000883
     7  C   -0.002892   0.000093   0.000009   0.005097  -0.000182   0.000621
     8  C    0.000093   0.017456  -0.000260  -0.000383  -0.000015  -0.001212
     9  H    0.000009  -0.000260   0.000896   0.000007   0.000001  -0.000009
    10  C    0.005097  -0.000383   0.000007   0.000186  -0.000383   0.002917
    11  H   -0.000182  -0.000015   0.000001  -0.000383  -0.000347  -0.000006
    12  C    0.000621  -0.001212  -0.000009   0.002917  -0.000006  -0.021106
    13  H   -0.000019  -0.000346   0.000056   0.000025   0.000000  -0.000056
    14  O   -0.001118   0.000007   0.000000  -0.003958   0.000108   0.000031
    15  C   -0.000043  -0.000004   0.000024   0.000003   0.000002  -0.000001
    16  H    0.000023   0.000003  -0.000010  -0.000002  -0.000001   0.000002
    17  H   -0.000001  -0.000000   0.000007  -0.000000   0.000000  -0.000000
    18  H    0.000008  -0.000000   0.000000   0.000000   0.000003  -0.000000
    19  H    0.000028  -0.000043  -0.000000   0.000006  -0.000001   0.000139
    20  C    0.000900  -0.000078   0.000140   0.000028   0.000178   0.000005
    21  C   -0.000093   0.000007  -0.000030  -0.000001  -0.000003   0.000000
    22  C   -0.000038   0.000019  -0.000006  -0.000043  -0.000080  -0.000007
    23  C    0.000023  -0.000010   0.000007   0.000004   0.000001  -0.000000
    24  H    0.000000   0.000003  -0.000025  -0.000000  -0.000000  -0.000000
    25  H    0.000001  -0.000000   0.000001   0.000000   0.000000  -0.000000
    26  H   -0.000613   0.000007  -0.000001  -0.000013   0.000004   0.000005
    27  H    0.000021  -0.000000   0.000000   0.000001   0.000004  -0.000000
    28  H   -0.000019   0.000014   0.000004  -0.000003  -0.000000   0.000008
    29  H   -0.000002   0.000000  -0.000000  -0.000000  -0.000000   0.000000
              13         14         15         16         17         18
     1  C    0.000004   0.000001   0.001031  -0.000237  -0.000088  -0.000133
     2  O    0.000000   0.000000   0.000213  -0.000002  -0.000002   0.000029
     3  O    0.000000   0.000001   0.000244  -0.000194   0.000003  -0.000708
     4  O   -0.000000  -0.000000  -0.000109   0.000135  -0.000210   0.000322
     5  C   -0.000020   0.000019  -0.001229   0.000531  -0.000063  -0.000075
     6  C    0.000118   0.000007   0.000331  -0.000289   0.000045   0.000004
     7  C   -0.000019  -0.001118  -0.000043   0.000023  -0.000001   0.000008
     8  C   -0.000346   0.000007  -0.000004   0.000003  -0.000000  -0.000000
     9  H    0.000056   0.000000   0.000024  -0.000010   0.000007   0.000000
    10  C    0.000025  -0.003958   0.000003  -0.000002  -0.000000   0.000000
    11  H    0.000000   0.000108   0.000002  -0.000001   0.000000   0.000003
    12  C   -0.000056   0.000031  -0.000001   0.000002  -0.000000  -0.000000
    13  H    0.000363   0.000000   0.000001  -0.000001   0.000000   0.000000
    14  O    0.000000   0.019481   0.000000  -0.000000   0.000000   0.000000
    15  C    0.000001   0.000000  -0.003112   0.000104   0.000220   0.000543
    16  H   -0.000001  -0.000000   0.000104   0.000572  -0.000233  -0.000020
    17  H    0.000000   0.000000   0.000220  -0.000233   0.000588  -0.000017
    18  H    0.000000   0.000000   0.000543  -0.000020  -0.000017  -0.000561
    19  H   -0.000014  -0.000032  -0.000000   0.000000  -0.000000  -0.000000
    20  C    0.000002   0.000000   0.000543  -0.000047   0.000016   0.000066
    21  C   -0.000000   0.000000   0.000079   0.000003  -0.000004   0.000001
    22  C   -0.000000   0.000000  -0.000003   0.000000  -0.000000   0.000000
    23  C    0.000000  -0.000000  -0.000005  -0.000000   0.000000   0.000000
    24  H   -0.000000  -0.000000  -0.000036   0.000002  -0.000004  -0.000001
    25  H    0.000000  -0.000000  -0.000002  -0.000000   0.000000  -0.000000
    26  H   -0.000000   0.000002   0.000001   0.000000  -0.000000  -0.000000
    27  H    0.000000  -0.000000  -0.000000  -0.000000   0.000000  -0.000000
    28  H    0.000001   0.000000   0.000001   0.000000  -0.000000   0.000000
    29  H   -0.000000   0.000000   0.000000   0.000000  -0.000000  -0.000000
              19         20         21         22         23         24
     1  C   -0.000000  -0.000613   0.016433   0.002397  -0.003534  -0.000479
     2  O   -0.000000   0.032869   0.011306  -0.000430  -0.000695  -0.000010
     3  O   -0.000000  -0.022882   0.000951   0.000687  -0.000066   0.000033
     4  O    0.000000  -0.004460  -0.001136   0.000020   0.000068   0.000277
     5  C   -0.000000  -0.013231  -0.000324   0.001573   0.000180   0.000224
     6  C   -0.000022   0.000721  -0.000143   0.000001   0.000160  -0.000020
     7  C    0.000028   0.000900  -0.000093  -0.000038   0.000023   0.000000
     8  C   -0.000043  -0.000078   0.000007   0.000019  -0.000010   0.000003
     9  H   -0.000000   0.000140  -0.000030  -0.000006   0.000007  -0.000025
    10  C    0.000006   0.000028  -0.000001  -0.000043   0.000004  -0.000000
    11  H   -0.000001   0.000178  -0.000003  -0.000080   0.000001  -0.000000
    12  C    0.000139   0.000005   0.000000  -0.000007  -0.000000  -0.000000
    13  H   -0.000014   0.000002  -0.000000  -0.000000   0.000000  -0.000000
    14  O   -0.000032   0.000000   0.000000   0.000000  -0.000000  -0.000000
    15  C   -0.000000   0.000543   0.000079  -0.000003  -0.000005  -0.000036
    16  H    0.000000  -0.000047   0.000003   0.000000  -0.000000   0.000002
    17  H   -0.000000   0.000016  -0.000004  -0.000000   0.000000  -0.000004
    18  H   -0.000000   0.000066   0.000001   0.000000   0.000000  -0.000001
    19  H    0.000677  -0.000000  -0.000000   0.000000  -0.000000   0.000000
    20  C   -0.000000   0.144386  -0.017858  -0.011945  -0.000192  -0.001289
    21  C   -0.000000  -0.017858  -0.073921  -0.002938   0.008968   0.002193
    22  C    0.000000  -0.011945  -0.002938   0.001510  -0.000414   0.000084
    23  C   -0.000000  -0.000192   0.008968  -0.000414  -0.004429  -0.000348
    24  H    0.000000  -0.001289   0.002193   0.000084  -0.000348   0.002870
    25  H    0.000000   0.000055   0.005192   0.000085  -0.001910  -0.001208
    26  H   -0.000000  -0.000496  -0.000310   0.000853   0.000324   0.000006
    27  H    0.000000  -0.000344   0.000674   0.000388  -0.000794  -0.000024
    28  H   -0.000000  -0.000057  -0.000418   0.000622   0.000455   0.000047
    29  H   -0.000000   0.000205  -0.000665   0.000152   0.000881   0.000064
              25         26         27         28         29
     1  C   -0.000650   0.001182  -0.000403   0.000493   0.000114
     2  O   -0.002346  -0.000079  -0.000245   0.000006   0.000039
     3  O   -0.000052   0.000033  -0.000111   0.000001   0.000001
     4  O    0.000036  -0.000006   0.000001  -0.000009  -0.000001
     5  C   -0.000005  -0.000425  -0.000005  -0.000112  -0.000007
     6  C    0.000004  -0.000041   0.000005  -0.000276  -0.000008
     7  C    0.000001  -0.000613   0.000021  -0.000019  -0.000002
     8  C   -0.000000   0.000007  -0.000000   0.000014   0.000000
     9  H    0.000001  -0.000001   0.000000   0.000004  -0.000000
    10  C    0.000000  -0.000013   0.000001  -0.000003  -0.000000
    11  H    0.000000   0.000004   0.000004  -0.000000  -0.000000
    12  C   -0.000000   0.000005  -0.000000   0.000008   0.000000
    13  H    0.000000  -0.000000   0.000000   0.000001  -0.000000
    14  O   -0.000000   0.000002  -0.000000   0.000000   0.000000
    15  C   -0.000002   0.000001  -0.000000   0.000001   0.000000
    16  H   -0.000000   0.000000  -0.000000   0.000000   0.000000
    17  H    0.000000  -0.000000   0.000000  -0.000000  -0.000000
    18  H   -0.000000  -0.000000  -0.000000   0.000000  -0.000000
    19  H    0.000000  -0.000000   0.000000  -0.000000  -0.000000
    20  C    0.000055  -0.000496  -0.000344  -0.000057   0.000205
    21  C    0.005192  -0.000310   0.000674  -0.000418  -0.000665
    22  C    0.000085   0.000853   0.000388   0.000622   0.000152
    23  C   -0.001910   0.000324  -0.000794   0.000455   0.000881
    24  H   -0.001208   0.000006  -0.000024   0.000047   0.000064
    25  H    0.004446   0.000013   0.000043   0.000106   0.000265
    26  H    0.000013   0.000826   0.000042  -0.000131  -0.000062
    27  H    0.000043   0.000042   0.003177   0.000066   0.000183
    28  H    0.000106  -0.000131   0.000066  -0.001618  -0.000397
    29  H    0.000265  -0.000062   0.000183  -0.000397  -0.001891
 Mulliken charges and spin densities:
               1          2
     1  C    0.484943  -0.108671
     2  O   -0.371868  -0.809528
     3  O   -0.359845   0.814724
     4  O   -0.507783  -0.001946
     5  C    0.083599   0.054344
     6  C   -0.297662  -0.018278
     7  C   -0.374582  -0.001157
     8  C   -0.205916   0.015551
     9  H    0.157762   0.000957
    10  C    0.407163   0.004677
    11  H    0.135105  -0.000497
    12  C   -0.331608  -0.018064
    13  H    0.164265   0.000114
    14  O   -0.715885   0.014552
    15  C   -0.279021  -0.001203
    16  H    0.163350   0.000340
    17  H    0.191144   0.000257
    18  H    0.173316  -0.000539
    19  H    0.127573   0.000737
    20  C    0.320889   0.106623
    21  C   -0.356308  -0.052040
    22  C   -0.359666  -0.007512
    23  C   -0.348367  -0.001326
    24  H    0.194586   0.002360
    25  H    0.189125   0.004072
    26  H    0.178736   0.001123
    27  H    0.180025   0.002677
    28  H    0.177697  -0.001217
    29  H    0.179230  -0.001129
 Sum of Mulliken charges =  -1.00000   0.00000
 Mulliken charges and spin densities with hydrogens summed into heavy atoms:
               1          2
     1  C    0.484943  -0.108671
     2  O   -0.371868  -0.809528
     3  O   -0.359845   0.814724
     4  O   -0.507783  -0.001946
     5  C    0.083599   0.054344
     6  C   -0.139900  -0.017321
     7  C   -0.239477  -0.001655
     8  C   -0.041650   0.015664
    10  C    0.407163   0.004677
    12  C   -0.204035  -0.017327
    14  O   -0.715885   0.014552
    15  C    0.248789  -0.001145
    20  C    0.320889   0.106623
    21  C    0.027403  -0.045607
    22  C   -0.000905  -0.003712
    23  C    0.008560  -0.003672
 APT charges:
               1
     1  C    0.987585
     2  O   -0.311599
     3  O   -0.218754
     4  O   -1.059922
     5  C    0.168236
     6  C   -0.675236
     7  C   -0.439293
     8  C    0.395605
     9  H    0.059105
    10  C    1.022577
    11  H    0.027179
    12  C   -0.339009
    13  H    0.003954
    14  O   -1.292828
    15  C    0.595877
    16  H   -0.035670
    17  H   -0.021563
    18  H   -0.041568
    19  H   -0.017483
    20  C    0.115033
    21  C    0.105030
    22  C   -0.032715
    23  C    0.065616
    24  H   -0.004316
    25  H   -0.009902
    26  H    0.027260
    27  H   -0.022792
    28  H   -0.015879
    29  H   -0.034529
 Sum of APT charges =  -1.00000
 APT charges with hydrogens summed into heavy atoms:
               1
     1  C    0.987585
     2  O   -0.311599
     3  O   -0.218754
     4  O   -1.059922
     5  C    0.168236
     6  C   -0.616131
     7  C   -0.412114
     8  C    0.399559
    10  C    1.022577
    12  C   -0.356493
    14  O   -1.292828
    15  C    0.497075
    20  C    0.115033
    21  C    0.090812
    22  C   -0.028246
    23  C    0.015209
 Electronic spatial extent (au):  <R**2>=           3314.3600
 Charge=             -1.0000 electrons
 Dipole moment (field-independent basis, Debye):
    X=             10.4371    Y=              1.1333    Z=              5.9940  Tot=             12.0890
 Quadrupole moment (field-independent basis, Debye-Ang):
   XX=           -142.2323   YY=            -91.6808   ZZ=           -105.9367
   XY=            -10.3302   XZ=             -9.0237   YZ=             -1.5643
 Traceless Quadrupole moment (field-independent basis, Debye-Ang):
   XX=            -28.9490   YY=             21.6024   ZZ=              7.3466
   XY=            -10.3302   XZ=             -9.0237   YZ=             -1.5643
 Octapole moment (field-independent basis, Debye-Ang**2):
  XXX=            168.3323  YYY=             23.7429  ZZZ=             11.7436  XYY=             28.0008
  XXY=             17.8058  XXZ=             68.4314  XZZ=             22.1593  YZZ=              7.4482
  YYZ=             -1.1255  XYZ=             12.7884
 Hexadecapole moment (field-independent basis, Debye-Ang**3):
 XXXX=          -3089.9083 YYYY=           -989.1842 ZZZZ=           -772.5857 XXXY=           -118.8978
 XXXZ=           -199.7858 YYYX=             18.0892 YYYZ=              7.6423 ZZZX=            -33.0995
 ZZZY=              4.3721 XXYY=           -611.9167 XXZZ=           -655.4562 YYZZ=           -308.9615
 XXYZ=            -47.5579 YYXZ=              1.5994 ZZXY=            -15.0926
 N-N= 1.143155178963D+03 E-N=-4.091372258591D+03  KE= 7.590954118682D+02
  Exact polarizability: 251.837  16.829 141.548  -2.000  13.198 199.732
 Approx polarizability: 184.636  15.542 115.919   4.752  10.811 173.013
                          Isotropic Fermi Contact Couplings
        Atom                 a.u.       MegaHertz       Gauss      10(-4) cm-1
     1  C(13)             -0.05570     -31.30787     -11.17143     -10.44318
     2  O(17)             -0.02192       6.64348       2.37056       2.21603
     3  O(17)              0.03339     -10.12149      -3.61160      -3.37617
     4  O(17)             -0.00796       2.41248       0.86083       0.80472
     5  C(13)              0.02438      13.70295       4.88955       4.57081
     6  C(13)              0.00031       0.17608       0.06283       0.05873
     7  C(13)             -0.00134      -0.75488      -0.26936      -0.25180
     8  C(13)              0.00348       1.95835       0.69879       0.65323
     9  H(1)               0.00035       0.77543       0.27669       0.25866
    10  C(13)             -0.00042      -0.23377      -0.08342      -0.07798
    11  H(1)              -0.00011      -0.23553      -0.08404      -0.07857
    12  C(13)             -0.00172      -0.96904      -0.34578      -0.32324
    13  H(1)               0.00013       0.29062       0.10370       0.09694
    14  O(17)              0.00207      -0.62668      -0.22361      -0.20904
    15  C(13)             -0.00192      -1.07797      -0.38465      -0.35957
    16  H(1)               0.00021       0.47426       0.16923       0.15820
    17  H(1)               0.00013       0.29586       0.10557       0.09869
    18  H(1)               0.00016       0.36136       0.12894       0.12054
    19  H(1)               0.00022       0.49930       0.17816       0.16655
    20  C(13)              0.04555      25.60503       9.13651       8.54092
    21  C(13)             -0.02003     -11.25788      -4.01709      -3.75523
    22  C(13)              0.00181       1.01502       0.36218       0.33857
    23  C(13)             -0.00175      -0.98463      -0.35134      -0.32844
    24  H(1)               0.00081       1.80604       0.64444       0.60243
    25  H(1)               0.00250       5.58313       1.99220       1.86233
    26  H(1)               0.00104       2.31684       0.82670       0.77281
    27  H(1)               0.00123       2.75508       0.98308       0.91900
    28  H(1)              -0.00058      -1.30686      -0.46632      -0.43592
    29  H(1)              -0.00055      -1.22586      -0.43742      -0.40890
 --------------------------------------------------------
       Center         ----  Spin Dipole Couplings  ----
                      3XX-RR        3YY-RR        3ZZ-RR
 --------------------------------------------------------
     1   Atom       -0.016308     -0.051758      0.068066
     2   Atom       -0.970056     -0.092151      1.062207
     3   Atom        1.990670     -0.513654     -1.477016
     4   Atom        0.000884     -0.003195      0.002311
     5   Atom        0.012834     -0.003630     -0.009204
     6   Atom        0.003710     -0.021481      0.017771
     7   Atom        0.000973     -0.002067      0.001094
     8   Atom       -0.000671      0.006137     -0.005466
     9   Atom       -0.001711     -0.001408      0.003119
    10   Atom       -0.001024      0.003322     -0.002299
    11   Atom        0.005764     -0.000117     -0.005648
    12   Atom        0.006984     -0.015223      0.008239
    13   Atom       -0.000829     -0.000491      0.001320
    14   Atom       -0.027675      0.052162     -0.024487
    15   Atom       -0.003010     -0.002381      0.005390
    16   Atom       -0.002834      0.000556      0.002278
    17   Atom       -0.000702     -0.000484      0.001186
    18   Atom       -0.004455      0.006505     -0.002050
    19   Atom       -0.000793     -0.000296      0.001090
    20   Atom        0.006288      0.036892     -0.043180
    21   Atom        0.038661      0.025642     -0.064303
    22   Atom       -0.000759      0.005381     -0.004623
    23   Atom        0.001412     -0.000674     -0.000737
    24   Atom        0.005627     -0.000488     -0.005139
    25   Atom        0.000425      0.005018     -0.005443
    26   Atom       -0.004599      0.004404      0.000194
    27   Atom        0.001896     -0.005555      0.003659
    28   Atom       -0.001206      0.000846      0.000359
    29   Atom        0.000732     -0.000755      0.000023
 --------------------------------------------------------
                        XY            XZ            YZ
 --------------------------------------------------------
     1   Atom        0.060164     -0.001394     -0.004606
     2   Atom        1.941569     -0.992777      0.805445
     3   Atom       -1.842741     -0.073313      0.045986
     4   Atom        0.011500      0.006090      0.002923
     5   Atom        0.035463     -0.034443     -0.026919
     6   Atom        0.008702     -0.006053     -0.000233
     7   Atom        0.001713      0.000901     -0.012663
     8   Atom       -0.008014     -0.001716     -0.000942
     9   Atom        0.000486     -0.000310     -0.000758
    10   Atom        0.001316      0.000501     -0.001530
    11   Atom        0.009953      0.000888      0.002233
    12   Atom        0.006901     -0.001388      0.002210
    13   Atom       -0.000145     -0.000855     -0.000326
    14   Atom       -0.005762      0.001655     -0.018073
    15   Atom        0.003014      0.002431      0.004320
    16   Atom       -0.000126     -0.001346      0.003950
    17   Atom        0.001425      0.001018      0.001387
    18   Atom        0.004481      0.001325      0.006234
    19   Atom        0.000166      0.000067      0.000115
    20   Atom       -0.054705      0.020628      0.013696
    21   Atom       -0.000203     -0.004446      0.035859
    22   Atom       -0.010371      0.006590      0.003605
    23   Atom       -0.005283      0.005254      0.004836
    24   Atom       -0.000315      0.002144     -0.004086
    25   Atom        0.004440     -0.004551      0.005636
    26   Atom       -0.002220      0.000762     -0.000996
    27   Atom       -0.006701      0.001006      0.001457
    28   Atom       -0.000846      0.002158     -0.000320
    29   Atom       -0.000731      0.000964      0.001367
 --------------------------------------------------------


 ---------------------------------------------------------------------------------
              Anisotropic Spin Dipole Couplings in Principal Axis System
 ---------------------------------------------------------------------------------

[...]
 0.00006913,-0.00040605,-0.00009722,-0.00006441,0.00008736,-0.00001076,
 0.00001489,0.00003624,0.00002921,-0.00005362,0.00006147,-0.00002769,-0
 .00001925,-0.00000430,0.00000322,0.00293137,-0.00369215,-0.00536408,-0
 .11132825,-0.05005401,0.01973711,-0.08318641,0.01941078,-0.02835631,0.
 52187117,0.00236513,-0.00227298,0.00037126,0.00164751,-0.00431317,0.00
 230862,0.00014529,0.00023852,-0.00069046,-0.00018342,0.00014363,-0.000
 01338,0.00036538,-0.00044143,-0.00044921,0.00098455,-0.00071773,0.0001
 4388,-0.00007248,0.00012293,-0.00007685,-0.00059202,-0.00027093,-0.000
 14327,-0.00000347,0.00015559,-0.00000583,0.00000567,-0.00009164,-0.000
 26293,-0.00005351,-0.00002371,-0.00002555,0.00006532,0.00012473,0.0003
 5630,0.00000520,-0.00000910,-0.00001470,0.00010716,0.00007123,0.000177
 40,0.00030037,0.00002984,0.00013903,0.00000184,-0.00002301,0.00000302,
 -0.00003326,0.00007767,-0.00000240,-0.00001089,0.00001246,-0.00000277,
 0.00000580,0.00001630,0.00000202,-0.01780411,-0.04155364,0.04750897,-0
 .04943660,-0.14805880,0.00437654,0.01492497,-0.05813109,0.00874897,-0.
 09361212,0.56458606,-0.00163753,0.00050671,-0.00035165,-0.00081846,0.0
 0211709,0.00171303,-0.00063043,0.00017689,-0.00017368,0.00058604,-0.00
 115168,0.00022412,0.00001858,0.00002472,0.00006063,-0.00062592,0.00026
 417,0.00021396,-0.00008884,-0.00016044,-0.00013916,0.00029235,0.000221
 41,-0.00001109,-0.00002198,-0.00002421,-0.00000619,-0.00012518,0.00001
 737,0.00022891,0.00000018,0.00000398,-0.00001129,0.00002768,-0.0000614
 8,-0.00022182,0.00001032,0.00000001,0.00000021,-0.00001459,-0.00003244
 ,-0.00012407,-0.00001889,0.00020237,-0.00006861,0.00004906,-0.00007430
 ,0.00000625,0.00000840,-0.00006258,-0.00000779,0.00001853,-0.00007057,
 0.00003711,-0.00000376,0.00000427,-0.00001142,0.00519061,0.03628447,-0
 .03644547,0.01710443,-0.00195175,-0.05681358,-0.02256477,0.01274633,-0
 .17642308,-0.08675997,-0.07519051,0.49801669,0.00100190,-0.00105712,0.
 00010948,0.00055817,-0.00002056,-0.00022502,-0.00007824,-0.00013583,0.
 00019596,-0.00021689,0.00039299,-0.00001450,0.00007213,0.00013508,-0.0
 0020860,0.00004928,-0.00003170,-0.00006267,-0.00007081,0.00006906,0.00
 001364,-0.00002183,-0.00006837,0.00005403,-0.00010554,0.00010732,0.000
 14088,0.00003374,-0.00001127,-0.00007149,-0.00000030,-0.00001954,0.000
 00865,0.00005458,0.00002227,0.00003470,0.00000466,-0.00000003,-0.00000
 835,0.00002063,0.00001359,0.00003672,-0.00005947,0.00055654,0.00041809
 ,0.00008797,-0.00009061,0.00000200,-0.00003088,0.00000794,-0.00002172,
 0.00006235,-0.00019743,0.00007430,0.00000767,0.00001331,0.00000512,-0.
 00293899,-0.00957090,-0.01045701,-0.04740418,0.00296652,0.00792442,-0.
 00419720,-0.00134168,-0.00241570,0.00139700,-0.00821271,-0.01228427,0.
 04925255,-0.00078336,0.00096228,-0.00213917,-0.00056641,0.00014537,-0.
 00096119,-0.00058441,0.00062455,-0.00022881,0.00187715,-0.00129245,0.0
 0140908,0.00001994,-0.00024148,0.00024195,-0.00007801,-0.00004726,0.00
 002704,0.00006346,0.00001252,-0.00004323,0.00004732,0.00006264,0.00002
 869,-0.00003622,0.00000792,-0.00003095,-0.00004017,0.00003588,0.000022
 27,0.00001478,0.00000227,0.00003544,-0.00000528,0.00000868,-0.00003579
 ,-0.00000522,0.00000152,-0.00000178,0.00001701,-0.00000133,0.00000307,
 -0.00018388,-0.00042899,-0.00019121,-0.00007991,0.00012418,-0.00000292
 ,0.00001442,-0.00001243,-0.00001282,-0.00002576,0.00010917,-0.00006855
 ,0.00000640,-0.00001497,-0.00000003,-0.00097777,0.00669507,0.01009893,
 0.00176484,-0.18029866,-0.14102716,-0.00219734,-0.00134105,-0.00114404
 ,0.00578963,-0.00926867,-0.01478867,-0.00309306,0.18767612,0.00217125,
 -0.00431135,0.00150932,0.00196290,0.00038281,-0.00014104,0.00007830,-0
 .00047486,0.00018465,0.00042196,0.00020029,0.00100861,-0.00043349,0.00
 049060,-0.00052564,0.00000842,0.00003932,-0.00013004,-0.00002523,0.000
 12266,0.00025571,-0.00003498,-0.00004498,-0.00000648,-0.00006427,0.000
 00969,0.00008683,0.00010799,-0.00006261,0.00000801,-0.00001394,-0.0000
 0196,-0.00003821,-0.00002535,-0.00001386,0.00004228,-0.00000237,-0.000
 00740,0.00001604,-0.00006925,-0.00000566,-0.00003245,0.00044253,0.0008
 1685,0.00070460,0.00012853,-0.00020367,0.00000547,-0.00009226,0.000090
 59,-0.00004141,0.00006796,-0.00030724,0.00009498,-0.00001488,0.0000118
 9,0.00000521,-0.00252877,-0.01460399,-0.01606470,0.00944046,-0.1405598
 8,-0.20164784,-0.00320346,0.00105511,-0.00103729,-0.00323612,0.0058634
 1,0.00725078,-0.00487796,0.15531727,0.20986684,0.00015391,-0.00124403,
 -0.00112804,0.00070033,-0.00078689,0.00148718,-0.00100097,0.00130821,-
 0.00065984,-0.00003257,0.00028794,0.00006476,0.00014085,0.00003029,-0.
 00001344,-0.00018238,-0.00003287,0.00007428,-0.00006078,-0.00004999,0.
 00011336,0.00011302,0.00002551,0.00005840,0.00000634,0.00001283,-0.000
 01805,0.00010563,0.00003958,0.00001612,0.00001038,0.00002127,0.0000059
 6,-0.00003331,-0.00001436,-0.00004857,-0.00001482,0.00000535,0.0000155
 7,-0.00010004,-0.00004025,-0.00005993,0.00008472,-0.00023481,-0.000006
 06,-0.00003492,0.00003030,-0.00000329,-0.00000223,0.00003748,0.0000084
 6,-0.00001913,0.00002931,-0.00003974,-0.00001376,-0.00000700,0.0000031
 0,-0.01037484,0.00312619,0.00189461,-0.29146847,0.06680164,0.05642642,
 0.00029408,-0.00028674,-0.00035608,-0.01320219,0.00424872,0.00402307,0
 .00183710,-0.00057591,-0.00035740,0.31264785,0.00135220,-0.00148843,0.
 00240130,-0.00002657,0.00159683,-0.00133529,0.00048732,-0.00093008,-0.
 00001315,0.00019278,-0.00022518,0.00028959,-0.00033951,0.00018076,-0.0
 0012818,0.00013678,0.00016010,-0.00013357,0.00025038,0.00007307,-0.000
 19016,-0.00005156,-0.00000590,-0.00008640,-0.00002029,-0.00002420,0.00
 003896,-0.00024428,-0.00007847,0.00003450,-0.00001421,-0.00004254,-0.0
 0001750,0.00001277,-0.00000312,0.00001254,0.00002344,-0.00001463,-0.00
 001795,0.00016406,0.00006898,0.00008207,-0.00009315,0.00037546,0.00016
 480,0.00004928,-0.00004285,0.00000405,-0.00001050,-0.00003242,-0.00001
 452,0.00003047,-0.00011303,0.00006289,0.00001880,0.00000959,-0.0000069
 5,0.00990951,-0.00482968,-0.00181003,0.06772963,-0.06405627,-0.0199995
 7,0.00054909,-0.00106643,0.00057590,-0.02777423,0.00724334,0.00647558,
 0.02063078,-0.00374415,-0.00318384,-0.07040360,0.06793537,-0.00293143,
 0.00016681,-0.00560743,0.00040939,-0.00077390,0.00206202,-0.00025824,0
 .00134610,0.00062062,0.00080275,-0.00069593,0.00051401,0.00006088,-0.0
 0015091,0.00040427,-0.00015786,-0.00017258,-0.00002307,-0.00010891,-0.
 00007375,0.00019260,0.00000148,0.00000349,0.00011651,-0.00001255,0.000
 01819,0.00004622,0.00022697,0.00004317,-0.00003339,0.00001432,0.000081
 28,0.00004331,-0.00001688,0.00001556,0.00003767,-0.00002688,0.00001495
 ,0.00001448,-0.00012273,-0.00004778,-0.00003843,-0.00006174,0.00006650
 ,0.00008837,0.00001568,-0.00003250,-0.00000360,-0.00000702,0.00000839,
 -0.00002353,0.00004552,-0.00004388,-0.00001923,-0.00001236,-0.00001008
 ,0.00001259,-0.02481514,0.00747704,0.00666046,0.05429484,-0.01800593,-
 0.06140275,0.00098922,-0.00035468,-0.00124469,0.00793170,-0.00227449,-
 0.00281466,0.02319523,-0.00492438,-0.00272040,-0.05974012,0.01749670,0
 .06227994,-0.00177093,0.00119049,-0.00026342,-0.00083854,-0.00144581,0
 .00025598,-0.00018213,-0.00017204,0.00077755,0.00014897,-0.00028621,0.
 00008547,0.00042674,0.00218942,0.00075779,0.00031898,0.00001271,-0.000
 66603,-0.00067127,0.00055948,-0.00051575,-0.00034921,-0.00006331,-0.00
 006264,0.00000761,-0.00004584,0.00000503,-0.00027673,0.00007156,0.0000
 0434,-0.00008692,0.00009168,0.00018985,0.00006123,-0.00007979,0.000177
 09,0.00000092,-0.00002389,-0.00001632,0.00013441,0.00008598,0.00008291
 ,-0.00000553,0.00008443,-0.00003450,0.00003020,-0.00002667,-0.00000161
 ,0.00001329,-0.00002293,-0.00000307,0.00000425,-0.00002550,0.00001276,
 0.00001838,0.00000883,-0.00000593,-0.00386059,0.00109956,-0.00174862,-
 0.00010573,-0.00212564,-0.00147879,-0.30683789,-0.03451764,-0.06475870
 ,-0.00015948,-0.00015751,0.00129903,-0.00041882,0.00017674,-0.00019653
 ,-0.00008287,0.00009754,0.00014110,0.32808590,-0.00048031,0.00178245,-
 0.00002339,-0.00173746,-0.00344737,0.00234142,-0.00012094,0.00007614,0
 .00034587,0.00012076,0.00044701,0.00000603,0.00012865,-0.00173524,-0.0
 0089038,-0.00026642,0.00016576,0.00027055,0.00015283,0.00067430,0.0005
 2645,0.00030106,0.00007292,0.00021085,-0.00000393,0.00000989,0.0000637
 6,0.00065263,0.00037064,0.00023575,0.00011558,-0.00032497,0.00016185,-
 0.00008852,-0.00002038,-0.00021491,-0.00000291,-0.00000579,0.00004265,
 -0.00042228,-0.00022938,-0.00036266,0.00003896,0.00008544,0.00007299,0
 .00001547,-0.00003493,-0.00000852,-0.00000360,0.00002067,-0.00000172,0
 .00000762,-0.00000899,0.00000574,-0.00004620,-0.00001277,0.00002189,-0
 .02374963,0.00660223,-0.00822647,-0.00097237,-0.00389993,-0.00261563,-
 0.03358389,-0.05494915,-0.00529846,0.00728471,-0.00141944,-0.00164629,
 -0.00084412,0.00042163,-0.00142835,-0.00018007,0.00007289,0.00001195,0
 .03656909,0.05137328,-0.00078214,0.00005964,-0.00045655,-0.00075260,0.
 00171421,-0.00166022,0.00051131,-0.00030328,0.00053231,0.00028466,-0.0
 0016063,0.00009820,0.00018655,-0.00021498,0.00013976,0.00005986,0.0000
 1772,-0.00021850,-0.00008257,0.00030568,-0.00010556,-0.00011640,0.0000
 1168,-0.00002527,0.00000051,-0.00000404,0.00001890,0.00000806,0.000020
 34,0.00011992,-0.00009931,0.00021430,-0.00000317,-0.00006968,0.0000430
 4,-0.00001351,-0.00000192,-0.00001364,0.00000666,-0.00002460,-0.000014
 73,-0.00004114,-0.00004900,0.00002182,0.00000581,0.00001396,-0.0000073
 6,-0.00000368,0.00000214,-0.00001199,-0.00000092,0.00001279,-0.0000103
 2,0.00000595,-0.00000253,-0.00000323,0.00000242,0.00387459,-0.00446703
 ,-0.00044226,-0.00242492,-0.00148223,-0.00383487,-0.06367389,-0.005713
 32,-0.06702211,-0.02518704,-0.00330766,-0.00052852,-0.00104543,-0.0012
 2007,0.00045364,-0.00040020,-0.00010848,-0.00001682,0.07118702,0.01088
 979,0.06623229,-0.00155392,-0.00057472,-0.00069949,0.00079661,0.000893
 30,-0.00039776,-0.00027401,0.00035430,-0.00001929,0.00034038,-0.000665
 20,-0.00003865,-0.00011945,0.00050379,-0.00017269,0.00001529,0.0000295
 8,-0.00012090,-0.00025422,0.00063192,0.00015093,-0.00001020,0.00000714
 ,0.00005535,0.00000971,-0.00000341,0.00002589,0.00028158,0.00014891,0.
 00009454,0.00002988,-0.00006867,0.00007452,-0.00001669,0.00000359,-0.0
 0002494,-0.00000295,-0.00000846,0.00001537,-0.00015683,-0.00007672,-0.
 00013986,-0.00004286,-0.00000757,-0.00010555,0.00002394,-0.00002484,-0
 .00000534,0.00002156,-0.00004108,-0.00000367,0.00000334,-0.00000445,0.
 00000678,-0.00001522,-0.00000658,0.00000870,0.00617494,-0.00724073,-0.
 00505750,-0.00108303,0.00136855,0.00036866,-0.14627768,0.08675363,0.09
 550587,0.00336270,-0.00433869,-0.00483595,0.00020613,0.00004483,0.0004
 1642,-0.00010515,-0.00020893,-0.00037079,-0.01432863,0.01718531,0.0188
 8341,0.15148478,-0.00379150,-0.00217600,-0.00164973,-0.00022289,0.0051
 9799,-0.00057799,0.00060485,0.00014758,-0.00014587,0.00111135,-0.00295
 257,-0.00012969,-0.00058108,0.00011682,0.00022617,0.00019258,0.0000622
 6,-0.00000210,0.00016464,0.00007893,-0.00028692,-0.00004881,-0.0000052
 5,-0.00006122,-0.00002524,-0.00002366,0.00002039,-0.00020187,-0.000021
 74,-0.00001773,-0.00000872,-0.00002919,0.00001667,0.00007247,0.0000228
 5,0.00001000,0.00002824,0.00000474,-0.00003247,0.00017708,0.00006094,0
 .00010130,-0.00048421,0.00033139,-0.00045896,0.00010539,-0.00006976,0.
 00000302,0.00006191,-0.00024600,-0.00002020,0.00003394,-0.00005870,0.0
 0007268,0.00002860,0.00000238,-0.00000557,0.02269315,-0.01992574,-0.01
 658975,-0.00140018,0.00041776,0.00097328,0.08612801,-0.12675543,-0.091
 66151,-0.00724730,0.00626175,0.00769802,-0.00005963,-0.00024156,0.0003
 2005,-0.00027041,0.00014606,-0.00055006,-0.00295520,0.00338651,0.00373
 232,-0.09396719,0.13528807,-0.00045587,0.00180505,-0.00066616,-0.00048
 296,-0.00055786,0.00100416,-0.00013757,-0.00007490,0.00053066,-0.00006
 843,0.00028093,0.00008226,0.00013297,0.00013562,0.00008225,0.00007322,
 -0.00000335,-0.00007429,0.00000716,0.00006573,-0.00003301,-0.00007607,
 -0.00002465,-0.00000087,0.00000573,0.00000844,0.00000949,0.00000713,0.
 00000395,0.00000484,0.00000314,-0.00000497,0.00001116,-0.00000437,0.00
 000767,0.00003614,-0.00000304,-0.00000777,0.00000206,0.00000953,0.0000
 0551,0.00000616,0.00003245,0.00005678,0.00005189,-0.00000127,-0.000005
 30,0.00000047,-0.00000417,0.00002480,0.00000342,0.00000045,-0.00000912
 ,-0.00000268,0.00000069,0.00000016,0.00000115,-0.00189354,0.00365860,0
 .00120042,-0.00038800,0.00083378,-0.00048370,0.09488824,-0.09183982,-0
 .14311878,0.01875760,-0.01630291,-0.01841826,-0.00032886,-0.00019969,0
 .00008765,-0.00032566,-0.00035584,-0.00004646,-0.00480826,0.00533285,0
 .00627842,-0.10290464,0.09736599,0.15575019,-0.00018041,0.00031698,-0.
 00012811,-0.00019801,0.00018883,-0.00013922,0.00012582,-0.00004366,0.0
 0007360,0.00013140,-0.00019178,-0.00000750,-0.00025110,0.00007482,-0.0
 0024820,-0.00062062,0.00056726,0.00017684,0.00016390,0.00014537,0.0000
 1008,0.00007804,0.00014600,0.00005592,-0.00004805,-0.00005983,-0.00005
 255,-0.00016393,0.00002042,0.00025550,0.00001322,-0.00001467,-0.000001
 82,-0.00007338,-0.00006324,-0.00022894,0.00000991,0.00000135,-0.000004
 34,0.00002353,-0.00001637,-0.00008966,-0.00003724,0.00007418,-0.000014
 65,-0.00000581,-0.00003468,0.00001095,-0.00000436,-0.00001823,-0.00000
 646,0.00001082,-0.00000543,0.00000740,0.00000605,-0.00000725,-0.000004
 17,-0.00018236,-0.00070370,0.00017636,-0.01640661,0.00400106,0.0111869
 9,0.01052449,-0.00277852,-0.00873947,-0.21285761,0.03896150,0.13211838
 ,0.00142853,0.00099595,-0.00067735,-0.00110439,-0.00372850,0.00122475,
 0.00081385,-0.00046500,0.00101763,0.00023208,0.00044210,-0.00277787,0.
 22797595,-0.00013398,0.00019043,0.00020919,0.00003600,0.00048735,-0.00
 069933,0.00025005,-0.00019170,0.00018154,0.00002705,-0.00009127,-0.000
 06732,0.00022047,-0.00003711,0.00048290,0.00045148,-0.00022749,-0.0002
 1148,-0.00011609,-0.00019603,-0.00014181,0.00011364,0.00002174,-0.0000
 4478,-0.00001269,-0.00015389,-0.00000025,0.00012159,0.00001164,-0.0000
 7592,-0.00001320,-0.00000142,-0.00001007,-0.00001008,-0.00003490,-0.00
 000878,-0.00000488,0.00000092,0.00000636,-0.00006386,-0.00001218,-0.00
 001374,-0.00003734,0.00006105,-0.00000881,0.00002102,-0.00000141,-0.00
 000404,0.00000950,-0.00001270,-0.00000437,0.00000492,0.00000461,0.0000
 0266,-0.00000400,-0.00000822,0.00000022,0.00012127,-0.00083816,0.00007
 352,-0.02129618,0.00483518,0.01566542,0.00094591,-0.00107524,-0.001291
 10,0.04012440,-0.05937575,-0.02709317,0.00070088,0.00194798,-0.0007885
 9,-0.00232564,-0.00352361,0.00197395,0.00003726,0.00063902,0.00031954,
 -0.00065668,0.00027301,-0.00077728,-0.03929824,0.06022609,0.00006619,0
 .00050765,-0.00050963,-0.00012192,0.00063207,-0.00014379,0.00003925,0.
 00011796,0.00006570,-0.00000106,0.00015431,0.00007089,0.00001467,0.000
 00578,-0.00008659,0.00051443,-0.00044337,0.00006895,-0.00007349,-0.000
 00112,-0.00000421,-0.00030179,-0.00020498,0.00001416,0.00001238,0.0000
 1049,0.00000627,0.00006273,0.00000695,-0.00021047,0.00002052,0.0000208
 6,0.00002819,0.00003524,0.00010218,0.00017224,-0.00000426,0.00000676,-
 0.00001322,0.00004224,0.00002039,0.00011505,-0.00000943,-0.00005296,0.
 00001752,-0.00001895,0.00001738,0.00000088,-0.00000531,0.00001072,0.00
 000120,0.00000026,0.00000689,-0.00000983,0.00001094,0.00000083,0.00000
 908,0.00016724,-0.00126387,-0.00042643,-0.00467177,0.00081392,0.002742
 84,0.02315515,-0.00656892,-0.01852243,0.13136025,-0.02610392,-0.150494
 76,0.00033597,0.00044080,0.00066430,-0.00120266,-0.00087876,0.00022629
 ,-0.00009181,-0.00104253,0.00261159,-0.00088237,0.00268094,-0.00499897
 ,-0.14111740,0.03012645,0.16221051,0.00011108,-0.00021395,-0.00008340,
 0.00033382,0.00072943,-0.00047493,0.00044626,-0.00021655,0.00016977,0.
 00016133,-0.00015819,0.00003377,-0.00004555,-0.00006155,0.00010431,-0.
 00037210,0.00034633,-0.00005374,0.00004129,0.00005824,-0.00003918,0.00
 017664,0.00013275,0.00000613,-0.00000208,-0.00006083,-0.00000164,-0.00
 002591,0.00002058,0.00015621,0.00000396,-0.00001477,0.00001233,-0.0000
 3593,-0.00004626,-0.00013009,0.00000544,-0.00000692,0.00000578,-0.0000
 2510,-0.00001686,-0.00008062,-0.00001037,0.00013753,0.00004311,0.00002
 072,-0.00003348,0.00000135,-0.00000480,-0.00000720,-0.00000849,0.00001
 449,-0.00001731,0.00001266,-0.00000381,-0.00000470,-0.00000318,-0.0011
 6696,-0.00325826,0.00175016,0.01053190,-0.01684129,0.00400627,-0.00459
 702,0.00616474,0.00198075,-0.10921285,0.11037636,-0.03031613,-0.000531
 26,-0.00159977,0.00060688,0.00173861,0.00128051,-0.00071117,-0.0000894
 8,0.00039498,-0.00133028,0.00125793,-0.00058006,0.00074227,-0.00940371
 ,0.02078740,-0.00733526,0.11068347,-0.00027025,0.00047906,-0.00034698,
 0.00021806,0.00006689,-0.00017000,0.00028169,-0.00021695,0.00020255,0.
 00030005,-0.00060253,0.00001819,0.00000172,-0.00009265,0.00017250,0.00
 025354,-0.00005010,-0.00003156,0.00016212,-0.00001335,-0.00021431,-0.0
 0014358,-0.00003000,-0.00004004,-0.00002220,0.00000517,0.00002058,-0.0
 0016660,-0.00004048,-0.00005511,-0.00000776,-0.00001681,0.00001149,0.0
 0004873,0.00003328,0.00006806,0.00001753,-0.00000596,-0.00002458,0.000
 15169,0.00006022,0.00010938,-0.00010695,0.00033121,0.00001970,0.000057
 00,-0.00005247,0.00000380,0.00000122,-0.00004724,-0.00001963,0.0000288
 2,-0.00004658,0.00003282,0.00002351,0.00000355,-0.00000341,-0.00151166
 ,-0.00243339,0.00226574,0.01097051,-0.01441538,0.00347151,-0.00286081,
 0.00318903,0.00015194,0.10914275,-0.25311294,0.05556471,-0.00086172,-0
 .00190479,0.00127769,0.00044795,0.00235852,-0.00061324,-0.00032680,-0.
 00011243,-0.00030710,-0.00003095,0.00070654,0.00057760,0.00149328,-0.0
 0291794,0.00087711,-0.11729089,0.26887852,-0.00045370,0.00054653,-0.00
 078673,0.00014617,0.00139105,-0.00021563,0.00004920,0.00010948,0.00031
 241,0.00009900,0.00020055,0.00015421,0.00017633,-0.00008278,0.00001309
 ,0.00001883,-0.00025059,0.00008873,-0.00012505,0.00007879,0.00015483,0
 .00002280,-0.00003178,0.00008981,0.00001356,0.00004271,0.00002012,0.00
 016422,0.00006829,0.00001468,0.00002956,0.00001823,0.00004727,-0.00000
 970,0.00000864,-0.00000615,-0.00001738,0.00000418,0.00001530,-0.000108
 65,-0.00004869,-0.00006304,0.00003330,-0.00011182,0.00004045,-0.000013
 20,0.00001799,-0.00000566,-0.00000484,0.00002811,0.00000623,0.00000095
 ,0.00000664,-0.00001643,-0.00001504,-0.00000176,0.00000757,0.00066603,
 0.00049628,-0.00419598,0.00275843,-0.00077041,-0.00148196,-0.01240064,
 0.02400824,-0.00367377,-0.02937909,0.05486740,-0.06468658,-0.00052758,
 -0.00060409,0.00014059,0.00016776,0.00064132,0.00067512,-0.00032394,0.
 00121889,-0.00213278,0.00017294,-0.00103106,0.00270041,0.00792334,-0.0
 1780092,0.00639463,0.03093637,-0.06301944,0.06638927\\-0.00000454,0.00
 000518,-0.00000021,-0.00000513,-0.00000100,0.00000003,0.00000242,0.000
 00107,0.00000176,0.00000343,-0.00000184,0.00000127,0.00000111,0.000000
 25,0.00000079,0.00000035,0.00000007,0.00000057,-0.00000007,0.00000322,
 0.00000139,0.00000138,0.00000180,0.00000118,0.00000183,-0.00000184,0.0
 0000134,-0.00000049,0.00000568,0.00000093,-0.00000093,0.00000495,0.000
 00019,-0.00000052,0.00000357,0.00000075,0.00000099,0.00000061,0.000001
 31,-0.00000205,0.00000753,0.00000021,0.00000439,-0.00000108,0.00000304
 ,0.00000419,0.,0.00000390,0.00000509,-0.00000292,0.00000417,0.00000446
 ,-0.00000020,0.00000446,-0.00000042,0.00000494,0.00000083,0.00000904,-
 0.00000618,-0.00000227,-0.00000423,-0.00000248,-0.00000140,-0.00000481
 ,-0.00000100,-0.00000355,-0.00000240,-0.00000311,-0.00000261,0.0000007
 2,-0.00000556,-0.00000039,-0.00000114,-0.00000535,-0.00000347,-0.00000
 271,0.00000102,-0.00000285,-0.00000387,-0.00000046,-0.00000372,-0.0000
 0192,-0.00000267,-0.00000314,-0.00000419,-0.00000419,-0.00000452\\\@


 SUPPORT THE RIGHT TO ARM BEARS!
 (ADD A CLAWS TO THE BILL OF RIGHTS)
 Job cpu time:       0 days  1 hours  0 minutes 46.5 seconds.
 Elapsed time:       0 days  0 hours  5 minutes  4.2 seconds.
 File lengths (MBytes):  RWF=    577 Int=      0 D2E=      0 Chk=     27 Scr=      1
 Normal termination of Gaussian 16 at Tue Feb  7 11:53:37 2023.
